/*--------------------------------*- C++ -*----------------------------------*\
| =========                 |                                                 |
| \\      /  F ield         | OpenFOAM: The Open Source CFD Toolbox           |
|  \\    /   O peration     | Version:  2312                                  |
|   \\  /    A nd           | Website:  www.openfoam.com                      |
|    \\/     M anipulation  |                                                 |
\*---------------------------------------------------------------------------*/
FoamFile
{
    version     2.0;
    format      ascii;
    arch        "LSB;label=32;scalar=64";
    class       volScalarField;
    location    "0.01";
    object      p;
}
// * * * * * * * * * * * * * * * * * * * * * * * * * * * * * * * * * * * * * //

dimensions      [1 -1 -2 0 0 0 0];

internalField   nonuniform List<scalar> 
203312
(
112064
113327
114613
115884
117025
117897
118488
118908
119268
119623
119985
120326
120608
120811
120978
121173
121438
121748
121973
121980
121763
121502
121410
121664
122054
122081
121698
121149
120869
121223
121765
121858
121434
120929
120827
121422
121837
121439
120727
120497
120829
121110
121000
120501
119682
118763
118642
118657
117854
116645
115871
114884
113340
111533
109680
107985
106411
104430
101893
98847
95394
91979.5
89415.9
87708.7
85434.6
82680.2
79174.1
75721.8
73222.9
71444
70849.5
70939.5
70876.3
71645.4
72895.3
73510.3
73716.5
74370.2
75705
77135.7
78913.6
81406.4
84166.3
86952.6
89736.5
92382
94837.2
97247.8
99339
100868
102508
104479
106714
108902
110923
112503
113083
113457
114398
116469
117800
117921
117120
116520
116617
116679
116163
114874
112866
110640
108879
107872
107871
107573
106190
103845
100913
97570.1
94472.8
92135.1
91076.8
90349.3
88980.1
87080.3
84777.9
82132.2
79199.7
76858.4
75354.8
74517.3
74233.8
74286.5
74969.3
76571.3
78480.6
80483.2
82513.5
84701.1
87066.9
89656.1
92350.8
94692.4
96760.1
99080.4
101724
104474
107080
109480
111704
113613
114889
115639
116360
117414
119003
120869
121885
121713
120868
120530
122555
124630
124380
122807
121171
120379
121534
123440
123291
121191
117894
114887
113710
113411
111684
109073
105734
101237
96789.1
92911
89176.8
85182.7
81908.9
79342.2
77255.2
75700.7
74895.9
74976.2
75101.6
75196.4
75249.4
75062.2
75016.1
75927.2
77765
80357.5
82627.7
84170.8
86380.3
89346.1
91924.6
93424.2
94536.3
96142.2
98140.4
100489
103127
105883
108453
110539
111858
112386
112870
113834
115335
117756
119088
118455
117082
116620
117792
119300
119663
118924
117711
116968
116887
116913
116529
115232
113411
112545
112601
111272
108853
106121
103920
101574
98814.9
96086.4
93659.2
91126.6
87521.1
85272.1
84270.2
83604.9
82722.8
81716.2
81478.1
82117.6
82599.3
82645.6
83034.5
83854.5
85039.7
86474.2
87967.8
89738.2
91669.2
93703.8
95743.9
97764.4
99598.1
101053
102322
103555
104969
106211
107172
107903
108315
108544
108767
109042
109432
109846
110035
109821
109389
108931
108634
108702
109346
110474
110839
110267
109750
109308
108766
107553
105980
104545
103355
102343
101352
100324
99398.7
98893.3
98425.3
97900
97328.5
96543.7
96223.5
96401
96744.6
96927.3
96635.1
96040.1
96030
96637.1
97404.4
98109.1
98323.9
98232.5
98208
98520.1
99269.8
100276
101360
102468
103500
104331
105027
105179
103947
102512
101762
101436
101202
100912
100572
100304
100223
100277
100370
100372
100201
99963.8
99898
100163
100461
100625
100632
100451
100634
101179
101619
101747
101265
100969
101256
101860
102312
102267
102204
102313
102547
103035
103907
105239
107169
108381
106837
103794
102010
101282
101267
101575
101627
101167
100485
99845.9
99654.2
99985.7
100353
100303
99762.9
99255.9
99372.5
99789.6
100033
99845.1
99602.6
99702.7
99990.6
100030
99944.3
100011
99866.6
99587
99631.5
100087
100537
100447
100389
100025
99495.9
100708
108698
114715
112476
113917
115341
116585
117481
118063
118496
118907
119341
119789
120213
120565
120822
121000
121180
121412
121704
121958
122020
121861
121608
121482
121673
122093
122187
121842
121329
121029
121372
121891
121973
121508
120936
120835
121483
121995
121677
121030
120767
120982
121232
121215
120888
120216
119323
118989
119243
118686
117494
116656
116384
115367
113647
111756
109992
108451
106799
104628
101966
98920.7
95737.6
93249.3
91862.1
89614.3
86627.1
82933
78627.6
75667.9
73631
72622.6
72797.2
73024.5
73410.6
74104.7
74605.2
74383.3
73964.1
74466.6
75805.6
77945.9
80572.1
83361.1
85972.6
88392.2
90641.3
92728.2
94810.1
96775.1
98664.6
100700
102821
105045
107260
109349
110781
111486
112130
113412
115526
116889
117190
116543
116224
116704
117141
116613
115308
113719
112078
110759
110070
109753
108830
107166
104924
102369
99963
97783.7
96033.1
94600.6
93321.8
91814.8
89657.9
87026.5
84205.8
81216.9
78613.6
76847
75798.7
75457.1
75598.6
75980.2
76934.6
78273.4
79497.2
80601.7
81967.5
83896.2
86282
89035.7
92073.8
95093.9
97751.3
100142
102768
105593
108138
110179
111845
113133
114147
115129
116533
118395
120152
121069
120772
120126
120078
122330
124304
124128
122877
121399
120607
121756
123797
123872
122001
118761
116156
115349
115997
115034
112800
110045
106733
102437
96914.7
92315.2
88567.7
84861
81938.7
79835.4
78313
77103.6
76272.5
75781.4
75292.1
74866.6
74131.7
73837.9
74508.5
76141.7
78976.7
82180.8
85019.7
87134.2
89142.9
91272.8
92123.6
92617.1
94227
96627.2
99440.7
102319
105037
107475
109272
110205
110816
111676
113036
115002
117618
118456
117859
116777
116364
117581
118942
119404
118894
117985
117074
116329
116613
116570
115512
113916
112800
112976
112185
110084
107624
105520
103947
101921
99122.5
96241.3
93883.8
91884
89522.9
87779.6
86583.1
85710.8
84704.3
83791.4
83866.9
84507.9
84476.2
83627.3
83586.7
84251.7
85243.9
86586.8
87907.7
89509.2
91264
93146.8
95127.6
97078.9
98872.7
100533
102228
103798
104894
105459
105771
106164
106846
107906
108972
109584
109462
108838
108268
108100
108261
108555
109026
109478
110157
111341
112054
111792
111708
111558
110536
108425
106101
104416
103587
102858
101713
100209
98460.9
97318.7
96776.8
96928.9
97123.9
96848.7
96026
95107.2
94790.1
95001.7
95481.3
95962.8
96366.5
96315.2
96082.6
96014.1
96452.9
97276.3
98215.1
99230.5
100037
100539
101200
102319
104300
107122
109131
109344
105895
102605
101498
101505
101562
101258
100603
99806.9
99098.8
98995.3
99586.5
100122
100206
99803.3
98986.7
98576.8
98855
99609.3
100203
100460
100000
99574
99707
100210
100707
101047
101122
101076
100849
100885
101413
102080
102967
103989
105019
106789
110196
113888
111165
105326
102362
100942
100474
100835
101046
100712
100078
99320.5
98660.9
98743.1
99323.9
99588.5
99445.6
99056.8
98602
98824.9
99229.8
99401.8
99164.6
98904.8
99077.1
99166.6
99229.8
99637.7
99946.2
99856.4
99726.6
99984
100122
98888.3
97767.7
97360.8
97986.6
103599
112619
123821
113253
114787
116097
116987
117528
117938
118355
118825
119336
119844
120290
120631
120876
121077
121305
121579
121849
121974
121884
121677
121540
121671
122088
122230
121931
121470
121209
121559
122031
122078
121587
120981
120872
121512
122050
121838
121320
121041
121105
121266
121312
121143
120671
119956
119329
119389
119273
118480
117502
116978
116671
115467
113608
111699
110099
108795
107207
105055
102406
99510.9
96777.1
95051.8
93380.2
90566.5
87076.5
82596.1
78850.1
76352.5
74861.3
74787.9
74749.9
74682.9
74623.8
74630.4
74937.4
74755.6
74412.8
75159
76793.4
79347.7
82036.3
84562.4
86806.4
88834.2
90718.4
92555.7
94588.1
96703.5
98829.3
101039
103188
105447
107440
108776
109699
110654
112321
114392
115826
116248
115726
115673
116442
117333
116992
115713
114407
113355
112420
111766
111208
110087
108456
105955
103132
101205
100182
100052
99009.5
97071.8
94742.6
92173.4
89377.3
86557.3
83605.4
80681.2
78673.7
77482.4
77059
77067.3
77260.5
77606.2
78185.5
78960.1
79780.7
80802.2
82297
84212.8
86499.9
89010.8
91950.9
95447.6
98828.8
101580
103780
106072
108312
110069
111324
112567
114087
115834
117652
119186
119912
119588
119326
119576
121910
123827
123868
122865
121358
120693
121815
123947
124228
122521
119361
117081
116479
117844
117465
115658
113153
110185
106713
102427
96789.8
92463.4
89487.5
86799.8
84042.2
81798.2
80037.3
78054.8
76468.8
75587.7
74890.1
73761.2
73296.4
73854.6
75381.4
78201
81365
84458.5
86997.1
88402.3
90012
91808.4
92406
93157.9
95350.4
98258.1
101354
104108
106046
107473
108503
109428
110833
112413
114972
116897
117305
116820
116056
116336
117382
118526
118946
118553
117832
116815
116051
116112
116395
115744
114221
112994
112948
112541
110964
108824
106821
105292
103955
101974
99306.9
96525.5
94409.5
93094.9
92060.9
90574.2
88665.9
87463.2
86648.2
86602.1
87345
88087
87257.5
84720.7
83647.4
83982.1
85022.7
86653.4
88241.2
89951.8
91808.4
93589.6
95106.1
96479.9
97754
99056.7
100825
102905
104376
105316
105651
105554
105609
106166
107515
108659
109020
108659
107436
106784
106964
107817
109275
110561
111712
112563
113148
112688
113194
114051
113149
110139
106825
104431
102938
102486
101653
100454
98778.5
96787.5
95613.9
95279.6
95832.1
96052.8
95868.3
95184.5
93949.5
93451.8
93659.4
94646.9
95721.5
96326.7
96334.4
95473
95236.7
95851.6
97160.8
99162.8
100935
102093
102077
102603
104548
108753
113830
115573
109377
103556
101451
100622
100752
100984
100628
100065
99098
98204.1
98034.4
98561.3
99006.4
99083.9
98916.8
98377.3
97927.1
98073.5
98626.6
99198.2
99493.9
99314.2
98655.5
98642.1
99156.4
100174
100933
101211
100674
100048
100319
101136
102876
105080
107300
110114
114185
119270
115892
107596
103894
101794
100521
99809.2
99736.1
99673.6
99430.1
99162.6
98885.7
98449.5
98068.3
97878.1
97839.5
97916.9
97880.3
97664
97531.9
97477.6
97467.3
97575.8
97869.7
98127.7
98125.1
98269.5
98705
98715.2
98232.3
97886.6
97322.7
96325.3
96082.9
97718.3
101921
109603
118611
127867
114088
115344
116240
116795
117192
117618
118143
118742
119343
119874
120295
120609
120868
121136
121440
121748
121939
121936
121797
121678
121778
122137
122276
122013
121622
121432
121786
122203
122194
121689
121094
120987
121540
122010
121885
121487
121252
121256
121342
121373
121258
120962
120511
119898
119437
119376
119224
118581
117596
116802
116527
115541
113826
111903
110186
108923
107624
105760
103344
100632
97943.5
95645.6
93389.9
90543.8
87179
83355.7
80361.8
78069
77063.8
76676
76231.3
75692.9
75111.8
74767.1
75116.9
75626.9
75996
77018.8
78707.1
80633
82670.7
84539.4
86369
88395.6
90525.7
92694
94933.2
97188.2
99371.8
101520
103556
105229
106600
107722
109013
110893
112962
114508
115076
114798
114936
115899
117177
117130
116077
114795
114052
113545
112761
111945
111037
109772
107923
105554
103750
102335
101789
101392
99999.2
97763.4
94835.3
91954.8
89612.9
87355
84633.3
81959.2
80038.3
78807.1
78154.6
77683.2
77326.6
76845.8
76794.6
77588
79141.3
81251.1
83528.6
85922.9
88396.4
90500.1
92856.3
95882
99217.5
102116
104254
105994
107785
109605
111361
113199
114994
116674
118028
118448
118337
118444
119147
121314
123027
123312
122643
121158
120676
121692
123869
124333
122874
119937
117787
117110
118997
119268
117628
115269
112653
109733
106325
102475
97913.2
94297
91956.4
89595
86395.9
83353.4
80938.7
78132.2
75996.9
74758.5
73912.8
73380.7
73782.5
74949.3
77457.4
80433.4
83303.8
86176
87721.9
88976.7
90713.5
92584.7
94201.3
95773.3
97841.8
100109
102161
104035
105423
106650
108314
110129
112411
114707
115892
116282
116000
115879
116384
117249
118142
118512
118296
117617
116488
115920
115983
116338
115889
114569
113151
112856
112517
111179
109505
107959
106467
105044
103606
101540
98941.4
96548.9
95051.6
94708.4
94702.2
93544.6
90951.4
89265.9
88027.8
89337.6
91534.9
92498.6
91264.8
86934.1
84479
83920.3
84390.6
85805.8
87483.2
89403.9
91860.4
94052.1
95668.6
96971.9
97726
98145.7
98976.5
100359
102320
104130
105454
106362
106430
105634
105616
106166
106882
107313
107374
106648
106395
106953
108462
110885
113371
115243
115868
114230
113716
114862
114866
112630
108976
105402
102900
101229
100342
99428.8
98375.8
97181.1
95576.9
94329.7
93754.3
93866.6
94105.2
94131
93963.2
93173.5
92544.7
92675
93520.4
94569.4
95476.8
95964.8
95494
95220.8
95852.4
97301.2
99895.4
102219
104118
105057
107099
110810
116514
120128
113834
106213
102768
100951
99909.3
99656.7
99824.1
99696
99395.4
98744.6
97708.8
97158.9
97161.6
97394.1
97625.3
97900.7
97840.4
97202.4
97016.2
97281
97782.4
98402.4
98616.1
97955.5
97750.8
98205.2
99151.8
99931.1
100444
100073
99829.8
100441
101991
105470
109572
114349
119550
124386
120389
109627
104538
102443
101193
99829.5
98816.5
98324
98101.4
98189.6
98244.7
97902.5
97026.6
96335.5
96141.9
96392.8
96701.8
96525.7
96104.9
95911.9
96047.4
96440.8
96742.3
96904.2
96904.7
97039
97446.2
97398.5
96708.6
96069.3
95490.7
95373.4
96706.3
100433
106814
114748
122943
129705
114446
115332
115861
116245
116704
117285
117963
118661
119307
119849
120283
120632
120953
121288
121622
121880
121968
121922
121873
121986
122278
122379
122125
121762
121615
121992
122376
122307
121821
121242
121102
121530
121883
121817
121535
121360
121406
121520
121514
121355
121091
120809
120412
119815
119282
119339
119432
118772
117488
116293
116283
115815
114311
112302
110208
108618
107778
106561
104439
101740
98799.8
95547.1
92212.4
89935.9
87764.9
85037.7
82432.8
80048.2
78776
78096.6
77309.2
76455.6
75865.3
75970.2
76726.5
77581.1
78064.9
78657.6
79610.3
80968.4
82527.5
84188.6
86182.2
88489.9
90928.1
93281
95427.3
97386.7
99268.8
101129
102917
104589
106223
107720
109487
111396
112849
113574
113766
114143
115270
116683
116845
116089
115003
114333
114204
113639
112760
111783
110705
109529
108132
106614
105272
104053
102728
101217
99309.9
96708.6
93893.1
91684.1
90260.6
88723.6
86439.8
84002.2
81737
79952.1
79002.1
78276.9
77177.7
75951.3
75978.1
76833.6
78653.8
81496.1
84485.9
87266.1
89866.3
92028.2
94051
96425.4
98976.3
101520
103930
106104
108269
110482
112467
114193
115770
116563
116747
117064
117549
118663
120714
122323
122796
122098
120745
120562
121404
123546
124180
123009
120366
118365
117585
119621
120582
119245
116942
114371
111862
109288
106304
103018
99641.3
96368.7
93864.4
91139.4
87384.4
83553.5
80764.5
78174.5
75729.7
74339.1
74029.6
74359.7
74899
75990.2
78006.5
80399.8
83113.6
85895.8
87745.5
90253.2
93058
95455.7
96909
97852.3
98993
100098
101411
103126
105130
107242
109701
112007
113756
115073
115669
115845
116252
117058
118111
118857
118971
118476
117413
116532
116070
116171
116549
116039
114737
113320
112761
112455
111213
109606
108616
107812
106326
104545
102870
100893
98588.1
96657.8
95782.5
96083
96645.9
95976
93637.6
91910.8
90619.2
91775.6
94621.1
96015.8
95021
89197.1
86199.1
85555.4
85446.3
86080.9
87039.9
88221.8
89737
91850.7
94326.8
96324.9
97806.7
98983.4
99474.2
99611.7
100414
101770
103553
104992
106021
105983
104675
104327
104649
105362
106245
106755
106563
106780
107973
110310
114404
118320
119754
116748
115003
114854
114768
113782
111175
107678
103769
100911
99072.8
97812.9
97154
96711.1
95922.9
94310.6
92662.4
91987.9
91941.2
92367.9
92756.2
92850
92279.3
91491.4
91580.3
92500.6
93857.2
94946
95693.1
95661.3
95595.1
96434.2
97926.3
101128
104957
108467
111661
115194
119359
122314
117446
108455
104863
102600
100532
99242.9
98529.1
98373.6
98439.9
98293
97701.6
96440.5
95783.8
95705.6
96031.7
96543.7
96774.3
96367.3
95617
95573.8
96067.6
96898.6
97483.8
97478.6
96769.5
96716.2
97312.6
98422.6
99289.4
99991.6
100288
100952
102556
106369
111834
117863
124156
128926
125073
113263
106095
102704
101220
99982.7
98238.4
97293.9
96915.1
96971.8
96885
96538.3
95655.6
94910.2
94651.6
94875.2
95182.3
95038.1
94542.4
94376.4
94690.2
95300.3
95625.5
95631.2
95511.3
95630.2
95989.4
95718.8
94745.9
94246.3
94331.4
95861.6
98886.3
104439
111464
118970
125879
130491
114258
114781
115219
115701
116350
117138
117962
118732
119400
119953
120414
120809
121169
121491
121747
121899
121963
122015
122166
122393
122413
122142
121815
121740
122134
122483
122385
121907
121380
121249
121577
121854
121802
121579
121463
121538
121662
121681
121497
121167
120905
120669
120239
119649
119294
119544
119568
118760
117358
115884
115787
116022
114868
112901
110583
108368
107412
106975
105239
102636
99583.7
95851.6
92319.4
89874.3
88425.8
86276.2
83677.4
80858.2
78842.7
78398
77883.8
77244.6
77350.5
78059.9
79189.8
79633.8
79703.5
79894.5
80239.5
81121.4
82553.2
84503.4
86852.8
89284.2
91591.9
93704.9
95589.6
97410.9
99298.8
101160
102927
104765
106641
108346
109937
111309
111990
112500
113237
114574
116047
116343
115765
114907
114382
114614
114395
113727
112924
111854
110572
109321
108132
106960
105888
104961
103627
101713
99296.4
96517.2
94065.8
92133.9
90901
89769.7
87699.8
85266.8
82474.7
80219.6
78840.5
78428.2
77862.7
76826.3
76928.3
77680.4
79077.4
81572.7
84469.8
87237.5
89786.6
92054
94364.5
96698.7
98975.7
101528
104437
107348
109904
112000
113622
114578
115095
115447
115852
116603
118034
119891
121365
122102
121306
120389
120285
121094
123069
123805
122976
120684
118766
117907
119835
121504
120618
118480
115819
113499
111532
109232
106695
103977
101113
98225.5
95370.3
92138.2
88148.3
83779.7
80765.7
78483.6
76111.3
74694.4
74528.9
75002.1
75550.6
76468.2
78089.9
79935.8
82678.3
85888.2
88991.1
93124.4
96574.5
98440.3
98497.4
98539.3
98784.9
99562.9
101285
103599
106417
108940
110785
112161
113156
113944
114669
115564
116947
118381
119263
119416
118591
117596
116888
116550
116704
116884
116249
114878
113443
112684
112555
111579
109943
108561
108072
107365
105714
103601
101771
100531
98952
97596.7
97070.3
97464.9
97810
97008.4
95752.4
95273.4
94773.3
95595.3
97918.9
98973.4
97622
89929.3
85440.5
85865.9
86753.4
87691.3
88478.9
89018.5
89571.7
90647.9
92214.2
94286.6
96272.5
97988.6
99440.4
100028
99604.7
100150
101328
102970
104275
104979
104342
103151
103056
103618
104905
106041
106890
107411
108446
110689
114960
120357
122725
119367
116619
115580
114969
114046
112500
109323
105511
101244
98423.9
96660.1
95732.4
95597.7
95108.1
94248.7
92200
90605.1
90019.6
90227
91099.3
91665.7
91858.3
91083.2
90292.4
90459.5
91663.8
93655.7
95036.3
96020.1
96426.7
96632.4
97824
100201
104884
110339
115391
119777
123209
124509
120710
111491
106151
103944
102064
99725.6
98216.2
97385.6
97084.6
97045.5
96870.2
96060.1
94797.4
94381.7
94535.1
95008.8
95289.1
95278.1
94450
94081.8
94395.8
95252.9
95999.2
96411.8
96165.8
95594.9
95761.6
96576.7
98229.8
99810.2
101187
102501
104578
108177
113981
120594
127405
131767
128751
118112
109670
103814
101081
99755.3
98273.2
96686.4
95882.4
95452.4
95294.5
95158.6
94702.7
93708.5
93134.3
93129.2
93462.4
93461.3
93030.2
92919.2
93348.7
93993.6
94271.2
94128.4
93978.9
94124.6
94220.8
93476.7
92870.8
93083.8
94690.1
97459.8
102322
108589
115451
122278
127798
130837
113674
114171
114752
115511
116387
117314
118217
119039
119745
120327
120776
121120
121406
121647
121819
121932
122029
122168
122320
122270
122019
121725
121713
122156
122486
122365
121975
121553
121437
121656
121874
121855
121647
121422
121358
121538
121737
121626
121258
120914
120663
120424
120126
119848
119592
119512
119309
118558
117363
115899
115108
115926
115422
113668
111248
108685
106721
106480
105658
103343
100441
97060.2
93774.8
90925.7
88930
86556.7
83765.6
80666.1
78241.4
77810.1
78337.6
78599.4
79231.7
80320.6
80886.5
80554.2
80498.6
80625.2
80800.1
81762.2
83450.9
85704.5
87901.3
89929.4
91764.2
93427.9
95182.6
97109.7
99259.8
101430
103611
105387
106887
108370
109562
110486
111258
112177
113675
115198
115702
115310
114645
114195
114708
115016
114431
113487
112681
111834
110685
109399
108146
106918
105745
104933
104387
103064
100901
97750.7
94955.6
92824.8
91136.3
89622.2
87413.6
84789.5
81757.5
79307.6
77844.3
77556.4
77947.8
78134
78315.5
79020.3
80265.1
82037.1
84233.8
86542.9
88831.6
91273.3
94036.7
96918.1
99765.1
102766
105978
108899
111184
112530
113416
113935
114399
115074
115999
117396
119020
120332
120849
120334
119984
119965
120850
122516
123326
122730
120810
119113
118298
119844
122009
121615
119737
117013
114305
112455
111452
109846
107860
105501
102695
99658.8
96470.2
92712.8
88654.2
84627.9
81497.7
79035.7
76434
74740.4
74263.4
74623.3
75364.5
76713.7
78684.3
80934.7
84231.7
87947.9
91966.8
96275.3
99378.9
99923.2
99281.6
99145.3
99285.1
100385
102773
105481
107722
109339
110411
111552
112767
113795
114845
116169
117660
118677
118794
118354
117949
117601
117441
117490
117446
116652
115112
113654
112784
112845
112281
110847
109082
107648
107128
106515
104851
102511
100296
99319.3
99673.2
99248
98923.9
99045.9
99007.1
97436.8
96541.2
97720.5
98771
100528
102671
103126
101305
91958.4
84810.1
84600
85868.1
87029.1
88166.3
89254.9
89992.4
90357.8
91326.2
92746.4
94731.4
96640.7
98224.9
99449.9
99297.5
98798.8
99440.2
100664
102141
103205
103566
102685
102054
102353
103289
105278
106975
108600
110053
112531
116237
121406
124229
120763
118272
116735
115813
114600
113281
110356
106446
102461
98509.2
96131
94701.8
94372.4
93848.5
93046.1
91786.3
89561.6
88604.7
88437.2
89273.3
90220.9
90654.3
90694.5
89639
89181.4
89532.3
91199.9
93948.6
95858.8
97315.2
98148.4
99166
101183
105099
111413
117333
122333
125963
126845
124484
116086
108626
104961
102966
100640
98172
96790.7
95940.8
95808.1
95742.7
95440.5
94211.4
93146.2
92830
93040.3
93532.1
93783.2
93441.1
92694.3
92695.1
93287.7
94263.3
94980.2
95296.2
94904.2
94838.1
95386.3
96809.3
99632.1
102134
104541
107388
111218
116701
123017
129359
133234
130674
122465
114259
106679
101751
99646.7
98343.9
96520.2
94905.3
94045
93624
93632.6
93356.6
92367.7
91549.4
91336.9
91649.5
91917.4
91622.8
91382.5
91610.8
92213.4
92711.9
92587.2
92217.6
92076.3
91776.7
91280.7
91765
93474.8
96009.1
100316
105968
112387
118890
124722
129033
130990
113062
113797
114662
115641
116679
117695
118640
119467
120151
120647
120977
121196
121367
121534
121697
121838
121984
122095
122022
121784
121583
121627
122024
122353
122313
122006
121674
121515
121545
121641
121594
121371
121092
121017
121290
121624
121703
121421
120985
120628
120366
120286
120480
120280
119630
118917
118690
118518
117764
116427
114936
114948
115779
114391
112114
109418
106724
105144
104965
103909
101495
98618.9
95472
92231.1
89261.8
86521.4
83660.4
80658.9
78389
77754.4
78657.2
79649
80816.6
81780.3
81822.9
80789.9
80270.2
80452.7
80750.8
82013.3
84151.7
86326.1
88286
89923.2
91511.7
93306.1
95136.4
96931.3
98983.5
101310
103530
105199
106507
107761
108864
109943
111133
112635
114122
114831
114706
114277
114023
114517
115133
114905
114067
112933
111884
111383
111131
110385
109096
107530
105882
104331
103355
103053
102019
99908.6
96949.1
94481.7
92210.6
89870.1
87049
83952.8
80931.8
78478.5
77113.5
76736.6
77694.3
78683.5
79428.9
80332.7
81358.8
82672.1
84277.7
86154
88436.8
91280.4
94735.8
98274
101526
104468
107101
109299
110843
112004
112857
113704
114566
115572
116936
118371
119355
119554
119338
119225
119583
120532
121964
122782
122397
120859
119339
118613
119794
122103
122218
120774
118143
115410
113278
111984
111577
110816
109171
106751
103784
100465
96752.7
92239.8
88405.6
85597.5
82455.4
79541.8
76902.3
75175
74399.3
74502.2
75010.9
76732.3
79307
82175.8
85741.7
89524
93619.5
97571.9
99997.5
100119
100109
100178
100467
101894
104538
107024
108844
109507
110591
112096
113734
115298
116649
117652
117961
117816
117852
117859
118079
118394
118588
118391
117305
115647
114248
113294
113343
113098
111884
109993
107977
106459
105981
105657
104261
101924
99567.3
98072.1
98847.5
100603
101127
101212
100934
99013
97220.1
98671.5
101058
104129
107055
107963
106777
95978.5
85292.2
84001.3
84792.5
86166.1
87331.1
88408.7
89478.8
90255.5
90735.6
91745.9
93183.6
95066.3
96682.9
98033.3
98738.9
97965.6
97751
98479.8
99765.3
101117
102102
102284
101711
101702
102472
104137
107065
109691
112290
115191
118637
122239
124726
121322
119037
118246
116896
115446
113573
111187
107294
103524
99859.2
96333.4
94178
92763.2
91967.4
91079.9
90313.2
89199.9
87585.5
87007.4
87215.1
88323.5
89139.6
89548.4
89417.3
88445.2
88537.6
89272.2
91357.2
94990.5
97776.5
99957.6
101823
104041
107106
112162
118266
123472
127146
128933
127999
121357
112598
106557
103589
101343
98656.2
96537.8
95344.2
94657.1
94471.2
94137.3
93434.9
91867.5
91164.4
91132.4
91666.1
92184.1
92276
91466.1
90942.9
91191.5
92102.5
93284.9
94107.2
94402.3
94385.5
95009.1
96244.1
98725
102673
106621
110595
115045
120041
125349
130567
133840
131407
125748
119081
110988
103777
99853.2
97973
96209.6
94080.3
92882.9
92235.9
92074.2
91810.6
90859.4
89867.4
89579.4
89951.5
90352.1
90135.1
89610.7
89660.1
90319.6
91067.8
90839.5
89913.8
89543.8
89489.9
90105
92026.7
94543.5
98390.3
103506
109599
115799
121572
126513
129827
131056
112787
113783
114869
115979
117090
118161
119104
119853
120343
120585
120729
120889
121079
121272
121460
121634
121768
121758
121631
121547
121628
121967
122213
122233
122090
121891
121734
121646
121603
121531
121368
121198
121101
121230
121669
121865
121619
121142
120638
120345
120272
120534
120850
120429
119348
118078
117797
118869
118591
117164
115213
113601
114500
115055
113037
110451
107611
104907
103864
103682
102263
99671.6
96750.4
93574.6
90173.1
86833.7
83876.1
81272.7
79124.6
78309.8
78878.2
80370
81966.7
82962.1
82902
81583.6
80471.9
80360.2
80572.5
81863
84087.1
86205.9
88065.4
89688.9
91591.6
93694.2
95829.1
97663.2
99308.2
101049
102726
104410
105932
107284
108606
110021
111526
112983
113847
113940
113799
113831
114401
114994
114939
114439
113655
112637
111569
110663
110978
111556
110601
108865
106606
104317
102386
101367
101389
100704
99134.3
96832
94015.4
90939.3
87568
84215.2
81141.9
78579.4
76995.3
76298
76359.1
77448.2
78846
80110.3
81556.7
83142
84893.4
86910.1
89378.2
92457
95966.1
99431.3
102570
105244
107465
109091
110393
111760
113105
114330
115484
116560
117594
118300
118397
118371
118464
119088
120061
121345
122137
121890
120711
119576
119004
119944
121840
122095
120967
118801
116629
114862
113271
111882
111663
111847
110478
107764
104468
100711
95631.5
90389.1
87236.1
85491.6
83473.4
80268.6
77013.4
75717.5
75220.3
75017.7
75342.9
77099.1
80234.3
83606.7
87243.9
91059
95045.9
98724.3
100600
101130
101434
101120
101198
102362
104564
106689
107373
108498
110285
112405
114532
116568
118111
118226
117428
117083
117437
118191
118916
119453
119345
118158
116501
115160
114245
114071
113866
112726
111132
108862
106842
105474
104767
104887
103867
101780
99257.2
97612.3
97483.5
99946.7
102706
103723
103493
101615
99201.5
99703.8
102561
105961
109383
111823
112340
101801
86487.1
83919.8
83913.9
84757
86147.7
87387.1
88638.7
89996.8
90898.9
90999.5
91729.7
92916.6
94565.8
96137.6
97431.7
97642.1
96809
96749.1
97472.7
98766.3
100196
101230
101661
101634
102324
103851
106632
110580
114322
117907
121171
123611
124680
121385
119446
119142
118429
116251
114093
111549
108486
104457
101086
97504.1
93614.1
91266.5
89797.3
88958.1
88911.9
88667.3
87654.4
86012.3
85411.9
85669
86910.7
87855.1
88421.1
88445.3
88019
88631.5
89981.4
92844.4
97386.5
101274
104514
107545
110509
113869
118461
123586
127923
130237
130606
125890
116888
108939
104675
101994
99625.2
96782.7
94880.8
93665.9
92916.1
92555
92137.6
91006.2
89739.3
89376.3
89585
90255.9
90696.9
90482.3
89436.7
89208.5
89722.7
91071.2
92577.4
93649.6
94337.4
94990
96404.6
98565.6
102740
108091
113329
118330
123254
127714
131443
133774
131814
127777
123103
115645
107613
101042
97832.9
95764.2
93621.8
91870.7
90951.2
90508.4
90113.1
89268.3
88165
87787.2
88088.4
88502.4
88477.5
87869
87691
88205.4
88695.3
88192.7
87309.3
87367.1
88265.6
90312.1
92835.4
96407.1
101183
106963
112894
118528
123671
127850
130320
131083
112768
113936
115145
116350
117490
118491
119262
119779
120035
120152
120263
120482
120779
121055
121287
121484
121611
121653
121696
121816
122033
122247
122306
122251
122177
122122
122070
122006
121949
121886
121761
121605
121604
121825
122039
121898
121367
120749
120302
120366
120623
120761
120747
120111
119048
117871
117440
118969
119181
117768
115519
113300
112638
114199
114072
111759
109027
106070
103422
102758
102074
100160
97340
94187.4
90762
87246.5
84230.4
82278.7
80590.7
79676.2
79832
81355.3
82897.5
83806.1
83827.7
82554.4
81250
81010.3
81014.6
81985.1
84108
86034.9
87768.5
89754.7
92023.8
94244
96440.9
98327.5
99651.5
101006
102495
104072
105667
107267
108849
110368
111733
112689
113122
113251
113470
114143
114791
114734
114430
114212
113752
112973
111838
110630
109788
110575
111328
110288
108284
105247
102673
100762
100234
100248
99227.5
97453
94576
90620.3
86875.5
83905.7
81622.4
79806.4
78068.9
76709.1
76239.4
76378.3
76997.4
78596.8
80849.2
83073
85478.6
88228.9
91194.9
94078.5
97106
100135
102838
105227
107472
109265
110761
112372
114045
115360
116354
116984
117236
117342
117460
117819
118660
119599
120697
121408
121199
120292
119558
119258
120312
121813
121681
120507
118648
117112
116094
115310
113909
112452
112259
112576
111197
108518
105028
100416
95033.8
90524.8
87346.2
86065.3
84452
81160.6
77385.8
75823.6
75365.9
75220.3
75689.7
77784.5
81073.2
84736.6
88518.2
92439.9
96452.8
100192
102334
103414
104245
103488
102622
102786
104091
105447
106277
107895
110227
112816
115157
117038
117780
117601
117212
117379
118081
118970
119740
119764
118803
117508
116364
115592
115202
114794
113538
111642
109629
108096
106987
105449
103555
102887
102754
101545
99615.5
97853.7
97272.5
98709.1
102128
105218
106271
105175
102787
101987
104131
107689
111326
114656
116061
106809
88185.6
83911.2
83329
83647.1
84627.7
86460.8
88192.6
89521.2
90561.9
90347.7
90060
90786.3
91979.9
93930
95642.9
96811.8
96498.4
95683.1
95736.7
96511.8
98063.7
99886.2
101200
102166
102857
104367
106715
111074
115946
119972
123324
124923
125080
121220
119553
119502
119290
117482
114775
112331
109422
105666
101611
98146.5
93694.1
90058.1
88060.6
87034.9
87619.6
87767
87292.3
85600
83846.2
83306.3
83650.1
85438
87006.3
88075.6
88524.8
88759.8
90058.6
92064.4
96120.1
101570
106145
110085
113603
116479
119723
123744
128218
130971
131533
128856
121060
111969
106582
103023
100523
97627.8
94493.2
92646.4
91528.7
90905.3
90774.3
90308.1
88697.2
87634.5
87437.3
87884
88663.7
89023.5
88479.2
87568.7
87641.5
88385.7
90381.7
92701.6
94315.4
95764.8
97377.3
99625.1
103340
109402
115473
120867
125738
129640
132400
133548
131997
129044