/*--------------------------------*- C++ -*----------------------------------*\
| =========                 |                                                 |
| \\      /  F ield         | OpenFOAM: The Open Source CFD Toolbox           |
|  \\    /   O peration     | Version:  2312                                  |
|   \\  /    A nd           | Website:  www.openfoam.com                      |
|    \\/     M anipulation  |                                                 |
\*---------------------------------------------------------------------------*/
FoamFile
{
    version     2.0;
    format      ascii;
    arch        "LSB;label=32;scalar=64";
    class       volScalarField;
    location    "0.01";
    object      rho;
}
// * * * * * * * * * * * * * * * * * * * * * * * * * * * * * * * * * * * * * //

dimensions      [1 -3 0 0 0 0 0];

internalField   nonuniform List<scalar> 
203312
(
1.44969
1.45874
1.46776
1.47674
1.48479
1.49087
1.49499
1.49819
1.50149
1.50537
1.50973
1.51415
1.51822
1.52168
1.52487
1.52837
1.53249
1.5369
1.54028
1.54121
1.53979
1.53774
1.53708
1.53965
1.54343
1.54354
1.53958
1.53406
1.53113
1.53435
1.53981
1.54073
1.53653
1.53239
1.53315
1.54316
1.55601
1.56835
1.5865
1.61617
1.65202
1.68018
1.69338
1.69396
1.68488
1.67084
1.6583
1.64105
1.61334
1.58266
1.55883
1.5351
1.50771
1.47977
1.45291
1.42911
1.40815
1.38496
1.35675
1.32336
1.28588
1.24877
1.2206
1.20171
1.17696
1.14706
1.10857
1.07038
1.04246
1.02244
1.01578
1.01683
1.01615
1.02473
1.03892
1.04622
1.04901
1.05675
1.07192
1.08801
1.1077
1.13529
1.16578
1.19641
1.22687
1.25562
1.28178
1.30701
1.32863
1.34451
1.36137
1.38166
1.40517
1.42898
1.45302
1.47422
1.49017
1.51011
1.54183
1.58885
1.62481
1.63906
1.63458
1.62424
1.60959
1.58664
1.55544
1.51928
1.48203
1.44807
1.42217
1.40692
1.40388
1.39919
1.38345
1.35805
1.32648
1.29114
1.25797
1.23272
1.22079
1.21255
1.19811
1.17803
1.15346
1.12514
1.0936
1.06827
1.0521
1.04311
1.04019
1.04091
1.04858
1.06614
1.08716
1.10942
1.13206
1.15638
1.18257
1.21106
1.24074
1.26669
1.28956
1.31484
1.34307
1.37189
1.39883
1.42297
1.44447
1.46222
1.47307
1.47847
1.48331
1.49095
1.50439
1.5208
1.53021
1.52885
1.52452
1.53102
1.57017
1.62079
1.65437
1.67288
1.68327
1.69152
1.71148
1.73576
1.73488
1.71089
1.66984
1.628
1.59943
1.56676
1.51248
1.44957
1.3841
1.31371
1.25122
1.20037
1.15563
1.1134
1.07931
1.05275
1.03122
1.01566
1.0084
1.0101
1.01287
1.01614
1.01954
1.02108
1.02386
1.03699
1.06089
1.09145
1.1168
1.13398
1.15783
1.18792
1.21249
1.22458
1.23219
1.24386
1.25803
1.27456
1.29303
1.31202
1.32889
1.34173
1.34777
1.34764
1.34823
1.35369
1.36615
1.39027
1.40685
1.41105
1.4157
1.43659
1.48152
1.53661
1.58186
1.6111
1.62698
1.63853
1.64893
1.65421
1.65185
1.63736
1.61467
1.60202
1.59897
1.57989
1.54641
1.50739
1.47031
1.42829
1.38056
1.33257
1.28801
1.24519
1.19324
1.15736
1.1375
1.12406
1.10914
1.09366
1.08778
1.09091
1.09308
1.09116
1.09271
1.09913
1.10933
1.12184
1.13499
1.15101
1.16881
1.18794
1.20757
1.22766
1.24713
1.26428
1.28047
1.29845
1.31953
1.33995
1.35899
1.3766
1.3914
1.40454
1.4175
1.43055
1.44418
1.45734
1.4672
1.47164
1.47272
1.47262
1.47334
1.47689
1.48607
1.50049
1.50571
1.50213
1.49855
1.49534
1.49069
1.47885
1.46286
1.44798
1.43531
1.42423
1.41315
1.40151
1.39066
1.38404
1.37779
1.37077
1.36287
1.35233
1.34756
1.3478
1.34926
1.34898
1.34367
1.33467
1.3324
1.3365
1.34249
1.3476
1.34725
1.34353
1.34062
1.3412
1.34629
1.35406
1.3626
1.37142
1.37967
1.38619
1.39184
1.3928
1.38168
1.36902
1.36367
1.36265
1.36257
1.36181
1.36036
1.35966
1.36081
1.36314
1.36556
1.36689
1.3664
1.36532
1.36579
1.36966
1.37384
1.37667
1.37795
1.37723
1.38
1.38708
1.39251
1.39413
1.38908
1.38573
1.38861
1.39446
1.39795
1.39598
1.39363
1.393
1.39347
1.39632
1.40308
1.41497
1.43346
1.44522
1.4305
1.40159
1.38661
1.38278
1.38618
1.39316
1.3971
1.39575
1.39185
1.38827
1.38908
1.39537
1.40187
1.40346
1.39992
1.39643
1.39891
1.40494
1.40899
1.40826
1.40624
1.4076
1.41075
1.41113
1.40995
1.41055
1.40868
1.40496
1.40442
1.40805
1.41156
1.40938
1.40728
1.4015
1.39556
1.40812
1.50916
1.60226
1.45363
1.46532
1.47705
1.48724
1.49462
1.49941
1.50319
1.50718
1.5118
1.51687
1.52188
1.52623
1.52962
1.5322
1.5347
1.53765
1.54109
1.54394
1.54469
1.54322
1.54074
1.53941
1.54111
1.54498
1.54568
1.54201
1.53677
1.53361
1.53676
1.54206
1.54296
1.53862
1.53438
1.53611
1.54832
1.56446
1.5799
1.59985
1.62847
1.66092
1.68646
1.69938
1.70152
1.69496
1.68269
1.67249
1.66291
1.64157
1.61337
1.59053
1.57436
1.55089
1.52132
1.49175
1.46503
1.44202
1.41931
1.39239
1.36204
1.32794
1.29267
1.26512
1.24971
1.2254
1.193
1.15264
1.10532
1.07215
1.04926
1.03801
1.04001
1.04254
1.04673
1.05463
1.06054
1.05839
1.05397
1.05955
1.07455
1.09853
1.12764
1.15826
1.18688
1.21323
1.23746
1.25969
1.28167
1.30234
1.3222
1.34383
1.36694
1.39163
1.4178
1.44482
1.46803
1.48922
1.51459
1.55087
1.5965
1.62938
1.6426
1.63851
1.63238
1.62522
1.61029
1.58048
1.5437
1.50824
1.47695
1.45371
1.4395
1.43096
1.41844
1.39887
1.37372
1.34584
1.3196
1.29554
1.27586
1.25986
1.24604
1.23012
1.20733
1.17955
1.14952
1.11744
1.08952
1.07061
1.0593
1.05554
1.05713
1.06178
1.0729
1.08798
1.10159
1.11391
1.1289
1.14992
1.17596
1.20601
1.23899
1.27158
1.30019
1.32554
1.35301
1.38197
1.40726
1.42707
1.44256
1.45398
1.46263
1.47065
1.4829
1.49983
1.51688
1.52743
1.52708
1.52877
1.54281
1.58855
1.64001
1.67193
1.68853
1.69489
1.69874
1.71667
1.74155
1.74297
1.72202
1.68445
1.65036
1.63495
1.62861
1.59496
1.54188
1.48137
1.41564
1.34471
1.26737
1.2054
1.15639
1.11378
1.08167
1.05868
1.04204
1.02914
1.02048
1.01537
1.01053
1.00688
1.00075
0.998874
1.00768
1.02741
1.05913
1.09394
1.1239
1.14593
1.16668
1.1872
1.19371
1.19667
1.20969
1.22965
1.25254
1.27524
1.29642
1.31498
1.32756
1.33267
1.33579
1.34105
1.35281
1.37283
1.40225
1.41968
1.43092
1.44442
1.47119
1.51974
1.57279
1.6142
1.63812
1.64905
1.65277
1.65179
1.65766
1.65809
1.64648
1.62779
1.6136
1.61375
1.60296
1.57705
1.5454
1.51556
1.4895
1.45515
1.41002
1.36253
1.32026
1.28258
1.24171
1.20853
1.18418
1.16556
1.146
1.12913
1.12452
1.12709
1.12386
1.11205
1.10972
1.11447
1.1242
1.1375
1.15086
1.16763
1.18665
1.20796
1.23139
1.2558
1.2796
1.30394
1.32934
1.35484
1.37644
1.39296
1.40713
1.42193
1.43933
1.46005
1.48017
1.49488
1.5005
1.49985
1.49892
1.50115
1.50591
1.51167
1.51899
1.52552
1.53351
1.54748
1.55587
1.55445
1.55419
1.55328
1.54238
1.51981
1.49478
1.47646
1.46728
1.45906
1.44634
1.42952
1.40974
1.39629
1.38972
1.39099
1.39237
1.38851
1.37854
1.36742
1.36291
1.36419
1.36823
1.37222
1.37522
1.37346
1.36933
1.36691
1.3699
1.3771
1.38537
1.39439
1.40082
1.40367
1.40819
1.41792
1.43709
1.46514
1.48476
1.48643
1.45092
1.41759
1.40814
1.41042
1.41316
1.41186
1.40673
1.4001
1.3947
1.39515
1.40331
1.41077
1.41297
1.41026
1.40292
1.39972
1.40374
1.41353
1.42171
1.42555
1.42171
1.41801
1.41993
1.42602
1.43168
1.43549
1.43619
1.43522
1.4316
1.43095
1.43555
1.44167
1.4499
1.45907
1.46819
1.48594
1.52185
1.56087
1.53373
1.473
1.44364
1.43141
1.42954
1.43669
1.44207
1.4413
1.43692
1.43106
1.42648
1.42926
1.43803
1.44243
1.4421
1.4395
1.43612
1.4399
1.4459
1.44848
1.44668
1.44464
1.44736
1.44887
1.44995
1.45519
1.45905
1.45843
1.4578
1.46164
1.46386
1.45064
1.43857
1.43436
1.44402
1.51239
1.61921
1.74718
1.46229
1.47607
1.4879
1.49588
1.50072
1.50452
1.50863
1.51343
1.51878
1.52416
1.52893
1.5326
1.53523
1.5373
1.53952
1.54214
1.54469
1.54575
1.54468
1.5424
1.54082
1.54184
1.54566
1.54682
1.54352
1.5388
1.53606
1.53945
1.5444
1.54518
1.54111
1.53738
1.5405
1.55477
1.57384
1.59254
1.61452
1.64172
1.66986
1.69173
1.70368
1.70688
1.70301
1.69363
1.683
1.67582
1.66331
1.64262
1.62088
1.60441
1.5895
1.56485
1.53408
1.50416
1.47862
1.45711
1.43414
1.40569
1.37348
1.33971
1.30839
1.2884
1.26956
1.23896
1.20088
1.15164
1.11001
1.08191
1.06523
1.06445
1.06396
1.0632
1.0626
1.06283
1.06642
1.06435
1.06052
1.06864
1.08654
1.11505
1.14499
1.17273
1.19714
1.21914
1.23951
1.25914
1.28092
1.30404
1.32793
1.35334
1.37957
1.40897
1.43758
1.46386
1.48965
1.51969
1.55866
1.6005
1.63003
1.64168
1.63776
1.63544
1.63523
1.6307
1.6076
1.57316
1.53972
1.51304
1.49114
1.4745
1.46087
1.44354
1.42213
1.39289
1.3613
1.33875
1.32592
1.32272
1.31039
1.28917
1.26396
1.23618
1.2061
1.17606
1.14468
1.11345
1.09205
1.07941
1.07497
1.07532
1.07773
1.08189
1.08859
1.09728
1.10645
1.11786
1.13427
1.1551
1.17987
1.20702
1.23845
1.2753
1.31062
1.33907
1.3615
1.38451
1.40645
1.42325
1.43517
1.44673
1.46079
1.47753
1.49572
1.51314
1.52336
1.52732
1.53754
1.5588
1.60864
1.65906
1.68886
1.70166
1.70235
1.70363
1.7197
1.74467
1.74816
1.72908
1.69362
1.66565
1.65598
1.66523
1.65198
1.61612
1.56709
1.50895
1.44364
1.37205
1.28983
1.22577
1.18085
1.14368
1.11002
1.08376
1.06319
1.04119
1.0238
1.01374
1.00561
0.993485
0.988968
0.994924
1.01077
1.04009
1.0726
1.10426
1.13016
1.14436
1.16046
1.17806
1.18243
1.18765
1.20703
1.23318
1.2607
1.28425
1.30003
1.31199
1.32065
1.3279
1.34143
1.35917
1.38894
1.41757
1.43808
1.45606
1.4776
1.51369
1.55972
1.60576
1.6391
1.65589
1.66173
1.65938
1.65535
1.65742
1.6608
1.65345
1.63636
1.62185
1.62049
1.61509
1.59645
1.57117
1.54584
1.52414
1.50352
1.47397
1.43464
1.39231
1.35655
1.32855
1.30296
1.27298
1.24024
1.21609
1.19624
1.18705
1.18769
1.19162
1.17895
1.14994
1.13837
1.14128
1.15344
1.17243
1.19137
1.21251
1.23635
1.26031
1.28239
1.30428
1.32596
1.34865
1.37661
1.40812
1.43303
1.45217
1.46426
1.47103
1.47852
1.49054
1.51084
1.52801
1.53522
1.53434
1.52424
1.51938
1.52235
1.53338
1.55065
1.56517
1.57788
1.58759
1.59445
1.59017
1.59603
1.60551
1.5956
1.56236
1.5256
1.49904
1.48241
1.47733
1.46793
1.45428
1.43525
1.41276
1.39944
1.39573
1.40196
1.40427
1.40188
1.39348
1.37899
1.37319
1.37521
1.38593
1.39741
1.403
1.40223
1.3914
1.38806
1.39407
1.40757
1.42845
1.44639
1.45726
1.4551
1.45889
1.47918
1.52429
1.57826
1.5965
1.53045
1.4678
1.44619
1.43911
1.44204
1.44606
1.44358
1.43889
1.42977
1.42165
1.42089
1.42813
1.43452
1.4362
1.43546
1.43081
1.42717
1.42971
1.43704
1.44431
1.44827
1.44665
1.43988
1.44014
1.44622
1.45776
1.46593
1.46845
1.46187
1.45446
1.45722
1.46576
1.48409
1.50748
1.53108
1.56153
1.60602
1.6615
1.62732
1.53815
1.49871
1.47694
1.46464
1.45865
1.4597
1.46065
1.45955
1.4579
1.45597
1.45213
1.44902
1.44801
1.44824
1.4499
1.45041
1.44874
1.44779
1.44754
1.4478
1.44964
1.45364
1.45683
1.45695
1.4588
1.46405
1.46434
1.45936
1.45582
1.44962
1.43788
1.43487
1.45486
1.50339
1.59251
1.69321
1.7935
1.4723
1.48406
1.49237
1.49755
1.50128
1.50539
1.51056
1.51645
1.52231
1.52746
1.5315
1.53443
1.53677
1.53915
1.54184
1.54449
1.54594
1.54568
1.54404
1.54258
1.54326
1.54658
1.54775
1.54486
1.54088
1.53897
1.5426
1.54729
1.54794
1.54457
1.54237
1.54744
1.56345
1.58456
1.60592
1.62917
1.65491
1.67929
1.6974
1.70735
1.71028
1.70829
1.70256
1.69356
1.68377
1.6756
1.66506
1.6497
1.63097
1.61369
1.60065
1.57971
1.55153
1.52199
1.49527
1.47355
1.45218
1.42598
1.39412
1.36063
1.32867
1.30164
1.27562
1.2436
1.20617
1.16367
1.13009
1.10466
1.0936
1.08921
1.08387
1.07769
1.07102
1.06687
1.07057
1.07602
1.07992
1.09136
1.11027
1.13161
1.1543
1.17501
1.19501
1.21718
1.24086
1.26548
1.29127
1.31799
1.34562
1.37436
1.40385
1.43302
1.46155
1.49053
1.5229
1.56104
1.59854
1.62536
1.63604
1.63402
1.6342
1.63909
1.64366
1.63076
1.60387
1.57399
1.55075
1.53177
1.51221
1.49359
1.4749
1.45454
1.42953
1.39973
1.37676
1.35822
1.34932
1.34268
1.32568
1.30042
1.26841
1.23699
1.21139
1.18681
1.15755
1.12891
1.10849
1.0958
1.08926
1.08441
1.08064
1.07555
1.07511
1.08395
1.10092
1.12388
1.14867
1.17461
1.20107
1.22326
1.24788
1.27945
1.31396
1.34354
1.3651
1.38258
1.40059
1.41849
1.43578
1.45451
1.4735
1.49301
1.51063
1.52214
1.53313
1.55085
1.58016
1.62894
1.67428
1.70069
1.71072
1.70647
1.70668
1.7203
1.74503
1.7503
1.73389
1.70128
1.67642
1.66752
1.68542
1.68528
1.66104
1.62496
1.58141
1.52993
1.47034
1.40531
1.33315
1.27331
1.23093
1.19376
1.151
1.11331
1.08358
1.05086
1.02564
1.01041
0.999646
0.992915
0.996516
1.00745
1.03243
1.06218
1.0906
1.11896
1.13399
1.14606
1.16286
1.18103
1.19627
1.21029
1.22834
1.24881
1.26861
1.28699
1.29992
1.31204
1.33025
1.35193
1.38124
1.41484
1.44311
1.46864
1.49273
1.52182
1.55854
1.59789
1.63355
1.65759
1.66862
1.66982
1.66238
1.6585
1.65982
1.66355
1.65838
1.64369
1.6277
1.624
1.61978
1.60445
1.58503
1.56641
1.5477
1.52875
1.50892
1.48153
1.44678
1.41306
1.38895
1.37487
1.36437
1.34206
1.30335
1.27361
1.2512
1.25657
1.2738
1.28067
1.26272
1.21535
1.19028
1.18541
1.19268
1.21187
1.23395
1.25948
1.29156
1.32162
1.34544
1.3665
1.38165
1.39339
1.40935
1.43051
1.45785
1.48326
1.5027
1.51688
1.52049
1.51541
1.51796
1.52613
1.53582
1.54209
1.54412
1.53724
1.53477
1.54156
1.55877
1.58601
1.61379
1.63442
1.64129
1.62393
1.61862
1.63142
1.63147
1.60667
1.56582
1.52569
1.49762
1.47885
1.46873
1.4584
1.44649
1.43292
1.41463
1.40056
1.39425
1.39572
1.39836
1.39835
1.39628
1.38684
1.37958
1.38108
1.39072
1.40232
1.41187
1.41665
1.41048
1.40704
1.41369
1.42906
1.45729
1.4825
1.50284
1.51211
1.53376
1.57436
1.63722
1.67673
1.60961
1.5261
1.48802
1.46869
1.45832
1.45655
1.45939
1.45886
1.45629
1.44979
1.43903
1.43404
1.43474
1.43811
1.44156
1.44558
1.44546
1.43882
1.43719
1.44075
1.44692
1.45421
1.45679
1.44917
1.44692
1.45228
1.46305
1.47141
1.4769
1.47245
1.46962
1.47601
1.49249
1.5318
1.57803
1.63115
1.68854
1.74174
1.69972
1.58157
1.52599
1.50369
1.49024
1.47519
1.46454
1.45997
1.45831
1.45973
1.46066
1.45708
1.44753
1.44033
1.43842
1.44149
1.44507
1.4431
1.43845
1.43634
1.43799
1.44248
1.44589
1.44778
1.44779
1.44935
1.45402
1.4534
1.44511
1.43732
1.43031
1.42887
1.44453
1.48859
1.56138
1.64948
1.73921
1.81232
1.4771
1.48545
1.49036
1.49398
1.49828
1.50374
1.51013
1.51673
1.52279
1.52782
1.53177
1.53489
1.53772
1.54067
1.5436
1.54569
1.54613
1.54539
1.54467
1.54557
1.54834
1.54918
1.54652
1.54298
1.54173
1.54596
1.55076
1.55164
1.54992
1.54961
1.55687
1.57453
1.59683
1.61986
1.64341
1.66716
1.68859
1.70398
1.71165
1.71331
1.71134
1.70776
1.70201
1.69251
1.68207
1.67659
1.6715
1.65888
1.63878
1.61892
1.61067
1.59713
1.57285
1.54352
1.51326
1.48824
1.47088
1.45063
1.42148
1.38647
1.35028
1.31175
1.27296
1.24596
1.22036
1.18896
1.15922
1.13232
1.11786
1.10991
1.10042
1.09049
1.08355
1.08442
1.09234
1.10172
1.10722
1.11425
1.12555
1.14091
1.15842
1.17746
1.20052
1.22728
1.25602
1.28509
1.31335
1.34044
1.36877
1.39911
1.43061
1.46328
1.49653
1.52791
1.5605
1.59166
1.61406
1.62494
1.62738
1.63044
1.63928
1.64877
1.64366
1.62686
1.60508
1.58599
1.5722
1.55455
1.53451
1.51412
1.49312
1.47215
1.45023
1.42758
1.40722
1.38901
1.37075
1.35061
1.32685
1.29646
1.26477
1.23992
1.22358
1.20618
1.18117
1.15485
1.13053
1.11127
1.10088
1.09298
1.08116
1.06783
1.06813
1.07757
1.09746
1.12818
1.16028
1.18998
1.21758
1.24027
1.26127
1.28584
1.31229
1.33852
1.36325
1.38559
1.4082
1.43187
1.45387
1.47491
1.49594
1.51247
1.52609
1.54473
1.56937
1.60342
1.64881
1.68794
1.70978
1.71396
1.70677
1.70805
1.71857
1.74243
1.74935
1.73614
1.70685
1.68437
1.67513
1.69633
1.70576
1.68897
1.65992
1.62507
1.58865
1.54733
1.49891
1.4447
1.38754
1.33154
1.28602
1.24272
1.19113
1.14157
1.10499
1.07135
1.04007
1.02169
1.01603
1.01598
1.01912
1.02804
1.04747
1.07091
1.09727
1.12397
1.14109
1.16509
1.19206
1.21468
1.22874
1.23855
1.25007
1.26127
1.27533
1.29508
1.31932
1.34634
1.37943
1.41462
1.44888
1.48243
1.51252
1.5409
1.5722
1.60641
1.64003
1.66551
1.67863
1.68101
1.67427
1.66701
1.66287
1.66405
1.66794
1.66215
1.64778
1.63204
1.62568
1.6221
1.60805
1.5896
1.57765
1.5676
1.54958
1.52789
1.50693
1.48215
1.45312
1.42734
1.41419
1.41083
1.41104
1.39803
1.36575
1.33785
1.3174
1.32403
1.35189
1.36493
1.34981
1.28609
1.25389
1.24855
1.25032
1.26086
1.27519
1.2924
1.31355
1.34164
1.37391
1.40064
1.42147
1.43872
1.4477
1.45234
1.46394
1.48184
1.50417
1.52233
1.53551
1.53591
1.52255
1.51968
1.52419
1.53318
1.54344
1.54925
1.54713
1.54957
1.56289
1.58938
1.63572
1.6792
1.69497
1.66213
1.64301
1.64153
1.64058
1.62991
1.60112
1.56187
1.5176
1.48514
1.46439
1.45031
1.44302
1.43789
1.42876
1.40991
1.39084
1.38331
1.38302
1.38836
1.39271
1.39354
1.38654
1.37709
1.37815
1.38918
1.40495
1.41657
1.42414
1.42331
1.42214
1.43111
1.44762
1.48392
1.52717
1.56631
1.60126
1.6401
1.68635
1.71902
1.66667
1.56781
1.52834
1.50328
1.48024
1.46634
1.45896
1.45766
1.45882
1.45748
1.45116
1.43713
1.43045
1.43002
1.43426
1.44044
1.44313
1.43844
1.43013
1.42986
1.43588
1.4457
1.45215
1.45181
1.44333
1.44273
1.44983
1.46269
1.47219
1.47987
1.48306
1.4902
1.50837
1.55197
1.61403
1.68157
1.75132
1.80375
1.76278
1.6312
1.55125
1.51367
1.49727
1.4834
1.46339
1.45284
1.44878
1.44955
1.44865
1.44473
1.4344
1.42537
1.42222
1.42475
1.42824
1.42643
1.42038
1.41834
1.4219
1.42881
1.43237
1.43236
1.43084
1.43206
1.43613
1.43269
1.42106
1.41509
1.41616
1.43397
1.46919
1.53246
1.61148
1.69467
1.7705
1.8207
1.4753
1.48023
1.4843
1.48868
1.49472
1.50216
1.50993
1.5172
1.52346
1.52856
1.53272
1.53624
1.53943
1.54221
1.54438
1.54555
1.54592
1.54626
1.54765
1.54988
1.55008
1.5475
1.54466
1.5445
1.54956
1.55487
1.55686
1.55712
1.55965
1.56981
1.58908
1.61243
1.6357
1.65799
1.67907
1.69721
1.7098
1.71591
1.71657
1.71362
1.71033
1.70673
1.70023
1.69085
1.68313
1.68152
1.6778
1.66542
1.64554
1.62409
1.61719
1.61311
1.59475
1.56735
1.53544
1.50438
1.48651
1.47429
1.44957
1.41509
1.37634
1.33114
1.28896
1.25915
1.24066
1.21471
1.18403
1.15136
1.12785
1.12193
1.11489
1.10713
1.10814
1.11586
1.12836
1.13338
1.13457
1.13771
1.143
1.15434
1.17194
1.19565
1.22444
1.2552
1.28578
1.31511
1.34313
1.37239
1.40364
1.43583
1.46763
1.5002
1.53186
1.55906
1.58279
1.60193
1.61074
1.61665
1.62367
1.63643
1.64905
1.6486
1.63839
1.62457
1.61285
1.60635
1.59408
1.57746
1.55978
1.53927
1.51649
1.49447
1.47389
1.45399
1.43505
1.41767
1.39746
1.37165
1.34102
1.30732
1.27787
1.2547
1.2397
1.22598
1.2024
1.17527
1.14444
1.11928
1.10356
1.09869
1.09223
1.08064
1.08166
1.08977
1.10507
1.13219
1.16329
1.19283
1.21997
1.24408
1.26862
1.29326
1.31723
1.34445
1.37573
1.40761
1.43708
1.4633
1.48596
1.50508
1.52204
1.54042
1.56213
1.58938
1.62448
1.66316
1.69461
1.71326
1.71183
1.70627
1.70677
1.71618
1.73783
1.74576
1.73631
1.71092
1.68961
1.67994
1.70083
1.71879
1.70832
1.68368
1.65274
1.62343
1.59629
1.56363
1.52649
1.48429
1.43757
1.38935
1.34227
1.29409
1.23883
1.18136
1.1397
1.1069
1.07433
1.05466
1.04866
1.0489
1.05088
1.05683
1.07085
1.08752
1.11381
1.14462
1.17422
1.21501
1.24893
1.26701
1.26752
1.26965
1.27636
1.28883
1.3117
1.34246
1.38116
1.41987
1.45433
1.48629
1.51681
1.5465
1.57554
1.60512
1.63722
1.66651
1.6858
1.69341
1.6885
1.67976
1.67308
1.66955
1.67108
1.6729
1.66564
1.65045
1.63464
1.62613
1.62462
1.61365
1.59503
1.57899
1.57291
1.56431
1.54501
1.52036
1.49855
1.4832
1.46355
1.44593
1.43841
1.4395
1.44064
1.42745
1.41168
1.40127
1.3913
1.39749
1.42215
1.43316
1.41466
1.33037
1.27886
1.28492
1.29802
1.31076
1.32194
1.33033
1.33899
1.354
1.37457
1.40048
1.42506
1.4465
1.46498
1.47279
1.46875
1.47603
1.49077
1.51058
1.52603
1.53408
1.52682
1.5135
1.51263
1.51943
1.53426
1.54697
1.55661
1.56253
1.57428
1.5997
1.64778
1.7079
1.73423
1.6975
1.66699
1.65551
1.64863
1.63841
1.6215
1.58628
1.54331
1.49459
1.46226
1.4423
1.43188
1.43054
1.42484
1.41471
1.39056
1.37198
1.36531
1.36791
1.37848
1.38507
1.38706
1.37747
1.3679
1.36988
1.38427
1.4075
1.42283
1.4336
1.43803
1.44007
1.45337
1.48033
1.53391
1.59595
1.65277
1.70176
1.73963
1.75396
1.71252
1.60993
1.55068
1.52625
1.5053
1.47869
1.4616
1.45262
1.44967
1.44945
1.44746
1.43801
1.42343
1.41872
1.42058
1.42628
1.42964
1.42953
1.41965
1.41526
1.41889
1.42898
1.4377
1.44239
1.43927
1.43235
1.43428
1.44372
1.46299
1.48116
1.49711
1.5125
1.53663
1.57761
1.64306
1.71673
1.79164
1.83925
1.8072
1.6897
1.59446
1.52759
1.49667
1.48171
1.46438
1.44558
1.4361
1.43097
1.42904
1.42737
1.42183
1.4098
1.40281
1.40267
1.40634
1.40619
1.4009
1.39951
1.40438
1.41174
1.41489
1.41312
1.41125
1.41281
1.41384
1.40504
1.39794
1.4006
1.41914
1.45118
1.50714
1.57826
1.65524
1.73087
1.79138
1.82445
1.46851
1.47313
1.4785
1.48566
1.49408
1.50301
1.51163
1.51938
1.52599
1.53138
1.53551
1.53861
1.54119
1.54335
1.54482
1.5458
1.54671
1.54818
1.54997
1.54983
1.54787
1.54598
1.54721
1.55378
1.5603
1.56401
1.56743
1.57359
1.58647
1.60668
1.63021
1.65286
1.67257
1.68875
1.70173
1.71216
1.71861
1.71928
1.71583
1.71168
1.70809
1.70428
1.69929
1.69392
1.68838
1.68449
1.67956
1.66891
1.65295
1.63263
1.62016
1.62401
1.61478
1.59121
1.55978
1.52585
1.49848
1.48958
1.47542
1.44449
1.40713
1.36503
1.32484
1.29003
1.2651
1.23628
1.2029
1.16597
1.13697
1.13123
1.13546
1.13754
1.14448
1.15697
1.16356
1.16066
1.16092
1.16463
1.16886
1.18293
1.20473
1.23403
1.26354
1.29206
1.31877
1.34478
1.37271
1.40327
1.43662
1.46981
1.50218
1.52867
1.55071
1.57022
1.58513
1.59625
1.60483
1.61411
1.62952
1.6444
1.64802
1.64225
1.63319
1.62638
1.62793
1.62488
1.61129
1.59417
1.57865
1.56235
1.54238
1.52086
1.49996
1.47949
1.45944
1.44266
1.42858
1.40797
1.37865
1.33935
1.30477
1.27832
1.25756
1.23898
1.21308
1.18291
1.14837
1.12018
1.10315
1.09954
1.10266
1.10386
1.10542
1.11294
1.12648
1.14576
1.1696
1.19466
1.21954
1.24617
1.27647
1.30839
1.34024
1.37428
1.41183
1.44812
1.47851
1.50165
1.52234
1.54137
1.56157
1.58497
1.61107
1.64126
1.6717
1.69547
1.70701
1.70538
1.70394
1.70432
1.71408
1.73216
1.74081
1.734
1.71266
1.69384
1.68479
1.70181
1.72563
1.72113
1.70007
1.66984
1.63935
1.61716
1.6036
1.58238
1.55533
1.52193
1.48146
1.437
1.39064
1.3392
1.28467
1.23068
1.18726
1.15225
1.11672
1.09316
1.08371
1.08262
1.08639
1.09738
1.11516
1.13577
1.16807
1.2048
1.2452
1.28969
1.32164
1.32698
1.323
1.32583
1.33342
1.35278
1.3872
1.42675
1.46356
1.49519
1.52166
1.54908
1.57709
1.60219
1.62565
1.64931
1.67231
1.68799
1.6918
1.68878
1.68544
1.68194
1.67992
1.68036
1.67979
1.67076
1.65353
1.63732
1.62762
1.62824
1.62178
1.6056
1.5855
1.56901
1.56288
1.5557
1.53661
1.5097
1.48391
1.47242
1.47574
1.46986
1.46558
1.46592
1.46382
1.44292
1.43247
1.44428
1.45413
1.47262
1.49582
1.50044
1.47823
1.37398
1.29148
1.28923
1.30555
1.32014
1.33423
1.34804
1.35794
1.36343
1.37608
1.39371
1.41773
1.4406
1.45949
1.47384
1.47216
1.46657
1.47425
1.48868
1.50595
1.51827
1.52233
1.51192
1.50458
1.50805
1.51862
1.5414
1.56083
1.57953
1.59627
1.62438
1.6657
1.72297
1.75409
1.71608
1.68865
1.6718
1.66163
1.64788
1.63302
1.60038
1.55655
1.51123
1.46574
1.43825
1.42168
1.418
1.41207
1.40291
1.38819
1.36182
1.35041
1.34842
1.35838
1.36964
1.37477
1.37518
1.36231
1.35667
1.36069
1.38049
1.41295
1.43488
1.45147
1.46119
1.47307
1.49611
1.54082
1.61245
1.67893
1.73458
1.77476
1.78468
1.7597
1.66593
1.58181
1.54044
1.5181
1.49152
1.46307
1.44719
1.43754
1.43611
1.43538
1.43193
1.41729
1.4046
1.40081
1.40327
1.40901
1.4119
1.40776
1.39876
1.3987
1.40556
1.41701
1.42546
1.42918
1.42445
1.42353
1.42984
1.4467
1.47955
1.50863
1.53661
1.56911
1.61242
1.6738
1.7436
1.81279
1.85467
1.82661
1.73723
1.64572
1.55969
1.50305
1.47869
1.46358
1.44228
1.42298
1.41261
1.40751
1.40753
1.40418
1.39234
1.38251
1.37993
1.38345
1.38648
1.38295
1.38009
1.38267
1.38963
1.39545
1.39399
1.38965
1.38798
1.38448
1.3787
1.38451
1.40441
1.43375
1.48368
1.54838
1.62091
1.69346
1.75776
1.80485
1.82612
1.46056
1.46761
1.47604
1.4856
1.49564
1.50538
1.51443
1.52238
1.529
1.53384
1.53701
1.53906
1.54068
1.54239
1.54411
1.54572
1.54757
1.54945
1.54975
1.5489
1.54898
1.55199
1.55962
1.5681
1.5748
1.5814
1.59082
1.6052
1.62441
1.64613
1.6663
1.68239
1.69407
1.70346
1.71248
1.71911
1.72111
1.71847
1.71354
1.70879
1.70496
1.7031
1.70377
1.7002
1.69121
1.6814
1.6771
1.6736
1.66346
1.64626
1.62645
1.6237
1.62975
1.61167
1.58334
1.54996
1.51593
1.49427
1.48806
1.47248
1.4412
1.4052
1.36679
1.3276
1.29171
1.25874
1.2244
1.18805
1.16016
1.15208
1.16112
1.17193
1.18559
1.19722
1.19827
1.18885
1.18463
1.18912
1.19538
1.21419
1.24194
1.27132
1.29893
1.32303
1.34674
1.37324
1.40021
1.42647
1.45529
1.48609
1.51446
1.53563
1.55193
1.56678
1.57945
1.59133
1.60403
1.62005
1.6356
1.64233
1.64041
1.63546
1.63227
1.6365
1.64025
1.63377
1.62002
1.60314
1.5872
1.5768
1.56857
1.55473
1.53478
1.51154
1.48724
1.46348
1.44521
1.43423
1.41718
1.3882
1.35058
1.31965
1.29203
1.26402
1.2308
1.19492
1.15961
1.13023
1.11362
1.10898
1.11866
1.1281
1.1353
1.14491
1.1561
1.17071
1.18883
1.21017
1.23622
1.26869
1.30824
1.34927
1.38828
1.42545
1.46043
1.49128
1.51788
1.54175
1.56338
1.58525
1.60696
1.62915
1.65351
1.67647
1.69229
1.69729
1.69691
1.69657
1.70064
1.71086
1.7263
1.73497
1.7305
1.71338
1.69647
1.68842
1.70147
1.72703
1.72835
1.71245
1.68351
1.65339
1.62985
1.61518
1.60983
1.59968
1.57871
1.54821
1.51032
1.46733
1.41952
1.36276
1.31329
1.27524
1.2331
1.19445
1.15955
1.13567
1.12403
1.12129
1.12345
1.14018
1.1664
1.19567
1.23292
1.27273
1.31664
1.35964
1.38619
1.3881
1.39318
1.39895
1.40775
1.43126
1.4698
1.50651
1.53641
1.55327
1.57398
1.59857
1.62357
1.64641
1.66564
1.67937
1.68398
1.68351
1.68475
1.68503
1.68736
1.69069
1.69274
1.6903
1.67805
1.65947
1.64381
1.63314
1.63364
1.6308
1.617
1.59561
1.57272
1.55536
1.54995
1.54626
1.53039
1.50366
1.47654
1.45929
1.46824
1.4881
1.49429
1.49541
1.49173
1.46839
1.44726
1.46311
1.48962
1.52412
1.55671
1.56677
1.55302
1.43092
1.30635
1.29121
1.30127
1.31838
1.3326
1.34575
1.3588
1.36828
1.3741
1.38618
1.40329
1.42563
1.44472
1.4606
1.46872
1.45946
1.45686
1.46523
1.48004
1.49562
1.50698
1.50904
1.50221
1.50198
1.51069
1.52995
1.56348
1.59343
1.62297
1.65565
1.69412
1.7339
1.76105
1.72347
1.69828
1.68971
1.67507
1.65896
1.63772
1.6106
1.56673
1.52401
1.4821
1.44101
1.41574
1.39925
1.39003
1.3797
1.37085
1.35766
1.33823
1.33125
1.3337
1.34684
1.35659
1.3616
1.36006
1.34823
1.34919
1.35779
1.38269
1.42565
1.45771
1.48295
1.50496
1.53079
1.56569
1.62273
1.69078
1.74813
1.78856
1.80823
1.79871
1.72569
1.62775
1.5592
1.52517
1.49939
1.46849
1.44368
1.42957
1.42149
1.41931
1.4154
1.40713
1.38843
1.37993
1.37947
1.38563
1.39162
1.39266
1.38301
1.37676
1.37962
1.39027
1.4042
1.41398
1.41747
1.41723
1.42465
1.43921
1.46805
1.51342
1.55835
1.60317
1.65297
1.70846
1.76686
1.82363
1.85889
1.83216
1.77069
1.69731
1.60679
1.52462
1.4793
1.45736
1.43694
1.41186
1.39762
1.38992
1.38795
1.38479
1.37351
1.36177
1.35836
1.36273
1.36742
1.36486
1.35869
1.35928
1.36706
1.37588
1.37322
1.3624
1.35808
1.35748
1.3648
1.38734
1.41671
1.46148
1.52037
1.5896
1.65915
1.72315
1.77739
1.81349
1.82682
1.45613
1.466
1.47676
1.48768
1.49861
1.5092
1.51855
1.52592
1.53079
1.53337
1.53502
1.53688
1.53908
1.54147
1.54419
1.54716
1.55016
1.55231
1.55387
1.55654
1.56174
1.5708
1.58053
1.59005
1.60032
1.61262
1.62778
1.64531
1.66368
1.68046
1.69341
1.70253
1.70873
1.71411
1.72092
1.72374
1.72126
1.71596
1.70991
1.70589
1.70427
1.70623
1.70873
1.70318
1.69016
1.67505
1.67114
1.68136
1.6774
1.6602
1.63654
1.61667
1.6244
1.62866
1.60433
1.57355
1.53975
1.50691
1.49273
1.48853
1.46978
1.4383
1.40326
1.36522
1.32478
1.28526
1.24989
1.21816
1.19169
1.18161
1.18769
1.20521
1.22462
1.237
1.23713
1.22464
1.2139
1.21445
1.21923
1.23879
1.26725
1.29523
1.32055
1.34296
1.3686
1.39635
1.424
1.44747
1.46825
1.48954
1.5096
1.52947
1.54712
1.56244
1.57709
1.59264
1.6091
1.62489
1.63393
1.63473
1.6333
1.63387
1.64006
1.64548
1.64331
1.63542
1.62419
1.61039
1.59563
1.58263
1.58292
1.58511
1.57091
1.54751
1.51805
1.48774
1.46064
1.44401
1.43821
1.42607
1.40395
1.37399
1.34051
1.30418
1.26423
1.22493
1.18864
1.15773
1.13812
1.12935
1.12973
1.14087
1.1558
1.16973
1.18609
1.2044
1.22504
1.24909
1.2787
1.31567
1.35791
1.40016
1.44003
1.47626
1.50753
1.53271
1.55589
1.58002
1.60335
1.62438
1.64318
1.65976
1.67488
1.68465
1.68676
1.68735
1.6885
1.69522
1.70566
1.71946
1.72783
1.72493
1.71175
1.69905
1.69266
1.70302
1.72398
1.72689
1.71464
1.69096
1.66715
1.64779
1.63056
1.61525
1.61255
1.61416
1.59762
1.56573
1.5267
1.48164
1.42098
1.35805
1.31891
1.2959
1.26899
1.22843
1.1877
1.17041
1.16259
1.15806
1.15991
1.17909
1.21416
1.25181
1.29253
1.33544
1.38062
1.42231
1.44398
1.45116
1.45931
1.45911
1.46323
1.48206
1.51349
1.54161
1.55346
1.56988
1.59348
1.6198
1.64549
1.6694
1.68725
1.68896
1.68042
1.67659
1.68041
1.68856
1.69634
1.70191
1.70056
1.68717
1.66855
1.65356
1.6433
1.64136
1.63892
1.62601
1.60795
1.58221
1.55922
1.54369
1.53576
1.53726
1.52579
1.50201
1.47317
1.45443
1.45304
1.4815
1.51347
1.52538
1.52326
1.50221
1.47391
1.4794
1.51178
1.55024
1.5886
1.61597
1.62181
1.50297
1.32445
1.29381
1.29384
1.30445
1.32156
1.33648
1.35139
1.36736
1.37751
1.37845
1.38701
1.40103
1.42042
1.43878
1.45388
1.45622
1.44624
1.44543
1.45368
1.46857
1.48505
1.49707
1.50201
1.50158
1.50963
1.52719
1.55894
1.60363
1.64567
1.6856
1.72186
1.7489
1.76063
1.72419
1.70264
1.69914
1.69132
1.66724
1.64326
1.61448
1.57972
1.53392
1.49531
1.45401
1.40859
1.38098
1.36357
1.35358
1.35302
1.35017
1.33813
1.3184
1.3112
1.31423
1.329
1.34036
1.3473
1.3476
1.34249
1.34972
1.36584
1.39964
1.45255
1.49741
1.53476
1.56942
1.60305
1.64099
1.69219
1.74872
1.79612
1.82124
1.82527
1.77406
1.67473
1.58515
1.53635
1.50549
1.4782
1.44526
1.42276
1.4083
1.3994
1.39509
1.39014
1.37671
1.36159
1.3572
1.35959
1.3674
1.37254
1.36999
1.35762
1.35489
1.36091
1.37677
1.39455
1.40722
1.41529
1.42292
1.43937
1.46444
1.5123
1.57306
1.63196
1.68759
1.74183
1.79056
1.83104
1.85625
1.8349
1.7909
1.73965
1.65723
1.56692
1.49182
1.45475
1.43061
1.40564
1.38514
1.37435
1.36914
1.36447
1.3545
1.34151
1.33707
1.34067
1.34561
1.34533
1.33818
1.33611
1.34225
1.34807
1.34216
1.33175
1.33245
1.34313
1.36728
1.3969
1.43863
1.49385
1.55984
1.62672
1.68952
1.74626
1.79197
1.81884
1.82712
1.45515
1.46697
1.47913
1.49128
1.50281
1.51307
1.52117
1.52671
1.52968
1.53128
1.53314
1.53642
1.54079
1.54527
1.54991
1.55501
1.56016
1.56521
1.5711
1.57874
1.58859
1.59992
1.61145
1.62375
1.63773
1.65328
1.66932
1.68444
1.69765
1.70789
1.71424
1.71742
1.72001
1.72361
1.72637
1.72487
1.71889
1.71174
1.70625
1.70647
1.70856
1.70931
1.70855
1.70082
1.68854
1.67467
1.66926
1.68528
1.68687
1.67063
1.64464
1.61845
1.61025
1.626
1.62357
1.59677
1.56519
1.53082
1.49974
1.49141
1.48279
1.46011
1.42698
1.38982
1.34956
1.30823
1.27224
1.24848
1.22793
1.21694
1.21887
1.2375
1.25649
1.26799
1.26898
1.25624
1.24235
1.2409
1.24221
1.25718
1.28317
1.30769
1.33004
1.35517
1.38331