/*--------------------------------*- C++ -*----------------------------------*\
| =========                 |                                                 |
| \\      /  F ield         | OpenFOAM: The Open Source CFD Toolbox           |
|  \\    /   O peration     | Version:  2312                                  |
|   \\  /    A nd           | Website:  www.openfoam.com                      |
|    \\/     M anipulation  |                                                 |
\*---------------------------------------------------------------------------*/
FoamFile
{
    version     2.0;
    format      ascii;
    arch        "LSB;label=32;scalar=64";
    class       volScalarField;
    location    "0.01";
    object      T;
}
// * * * * * * * * * * * * * * * * * * * * * * * * * * * * * * * * * * * * * //

dimensions      [0 0 0 1 0 0 0];

internalField   nonuniform List<scalar> 
203312
(
269.343
270.688
272.078
273.422
274.617
275.534
276.154
276.54
276.767
276.878
276.912
276.888
276.793
276.629
276.431
276.244
276.104
276.012
275.917
275.765
275.529
275.305
275.214
275.331
275.537
275.577
275.418
275.164
275.053
275.281
275.531
275.578
275.367
274.964
274.595
274.159
272.823
269.791
265.142
259.779
254.84
251.152
248.968
247.857
247.501
247.662
249.281
251.933
254.527
256.798
258.996
260.757
261.926
262.618
263.029
263.277
263.3
262.725
261.672
260.254
258.484
256.639
255.244
254.306
252.923
251.147
248.847
246.49
244.738
243.468
243.024
243.083
243.028
243.61
244.473
244.815
244.849
245.211
246.079
247.023
248.224
249.843
251.557
253.232
254.85
256.356
257.798
259.247
260.514
261.398
262.359
263.475
264.61
265.536
265.989
265.899
264.409
261.78
258.521
255.412
252.613
250.675
249.653
249.956
252.441
256.228
260.213
263.45
265.351
266.216
266.75
267.149
267.725
267.879
267.443
266.43
265.07
263.305
261.668
260.42
259.944
259.62
258.768
257.56
256.092
254.343
252.335
250.682
249.556
248.909
248.657
248.664
249.114
250.246
251.525
252.769
253.963
255.212
256.531
257.945
259.343
260.471
261.438
262.561
263.901
265.34
266.722
268.072
269.448
270.727
271.749
272.523
273.33
274.392
275.621
276.921
277.532
277.389
276.243
274.303
271.956
267.924
261.959
255.785
250.818
247.962
247.423
247.787
247.615
246.809
245.999
245.882
247.713
252.213
257.286
262.176
266.169
268.506
269.53
269.691
268.872
266.572
264.423
262.6
261.03
259.696
258.786
258.626
258.35
257.844
257.164
256.139
255.286
255.116
255.405
256.528
257.789
258.625
259.947
262.061
264.16
265.819
267.321
269.312
271.813
274.708
277.893
281.19
284.36
287.055
289.177
290.57
291.694
292.999
294.154
295.119
294.94
292.499
288.158
282.849
277.026
270.513
263.577
257.195
252.086
248.729
246.99
246.257
245.798
245.212
244.729
244.778
245.366
245.399
245.262
245.295
246.266
247.787
249.391
251.238
253.364
254.99
255.563
256.715
258.128
259.153
259.868
260.34
260.983
262.278
263.293
263.904
264.77
265.822
267.1
268.578
270.05
271.651
273.27
274.838
276.257
277.471
278.261
278.496
278.429
277.883
277.176
276.182
274.776
273.11
271.239
269.267
267.355
265.587
264.02
262.626
261.31
260.013
258.803
257.736
256.907
256.45
256.377
256.531
256.486
255.772
255.181
254.699
254.225
253.403
252.427
251.567
250.899
250.377
249.895
249.416
249.042
248.961
248.907
248.846
248.828
248.746
248.799
249.213
249.83
250.353
250.585
250.721
251.123
251.936
252.802
253.666
254.287
254.755
255.244
255.943
256.916
258.032
259.188
260.334
261.384
262.243
262.921
263.121
262.132
260.902
260.011
259.372
258.788
258.192
257.595
257.041
256.617
256.316
256.098
255.853
255.509
255.106
254.851
254.805
254.787
254.678
254.458
254.134
254.084
254.158
254.267
254.29
254.008
253.877
254.071
254.513
255.006
255.254
255.526
255.914
256.412
257.106
258.034
259.144
260.495
261.296
260.225
258.028
256.331
255.208
254.546
254.038
253.453
252.549
251.55
250.594
249.967
249.668
249.422
249.015
248.301
247.657
247.509
247.48
247.37
247.035
246.788
246.797
246.958
246.989
246.983
247.042
247.015
246.975
247.179
247.671
248.164
248.327
248.553
248.674
248.41
249.196
250.958
249.46
269.601
270.875
272.085
273.133
273.875
274.351
274.665
274.888
275.048
275.158
275.224
275.241
275.218
275.159
275.12
275.119
275.162
275.23
275.235
275.138
275.008
274.962
275.091
275.349
275.434
275.311
275.086
274.972
275.186
275.412
275.439
275.161
274.623
274.084
273.383
271.7
268.346
263.589
258.393
253.797
250.47
248.532
247.548
247.126
247.079
247.889
249.848
251.916
253.744
255.551
257.575
259.188
260.287
261.028
261.594
262.044
262.183
261.82
260.842
259.551
258.052
256.819
256.119
254.809
253.004
250.695
247.857
245.906
244.508
243.771
243.888
244.056
244.365
244.828
245.107
244.874
244.516
244.88
245.804
247.227
248.958
250.768
252.386
253.855
255.217
256.486
257.746
258.912
260.004
261.095
262.087
263.004
263.594
263.702
262.932
260.841
257.953
254.799
252.131
249.957
248.584
247.828
248.077
250.2
253.465
257.081
260.261
262.711
264.404
265.47
266.424
267.242
267.332
266.927
266.127
265.028
263.943
262.983
262.26
261.629
260.954
260.064
258.748
257.068
255.235
253.243
251.406
250.098
249.32
249.08
249.172
249.334
249.848
250.672
251.447
252.121
252.988
254.207
255.647
257.232
258.931
260.57
261.958
263.23
264.649
266.226
267.741
269.011
270.144
271.11
271.923
272.765
273.811
275.046
275.99
276.176
275.561
273.785
271.186
268.314
264.091
258.681
253.557
249.566
247.378
247.124
247.679
247.626
246.852
245.658
245.231
245.823
248.167
251.299
254.902
258.834
262.7
265.426
266.441
266.844
266.861
265.474
263.942
262.752
261.856
261.043
260.422
260.047
259.607
259.073
258.103
257.563
257.631
258.221
259.815
261.753
263.575
264.939
266.225
267.875
268.898
269.668
271.404
273.8
276.622
279.561
282.299
284.774
286.792
288.134
289.054
290.155
291.135
291.879
292.255
290.725
286.984
281.694
275.591
269.576
263.5
257.738
252.887
249.29
246.81
245.385
245.113
244.958
244.448
243.838
243.571
243.93
243.852
243.217
242.652
242.592
243.157
244.044
244.94
246.111
247.768
249.614
251.204
253.075
254.76
256.222
257.533
258.565
259.858
261.248
261.901
262.021
262.445
263.404
264.202
265.225
266.144
267.102
267.973
268.676
269.169
269.351
269.226
268.638
267.945
266.941
265.525
263.79
261.908
260.144
258.648
257.508
256.518
255.42
254.181
252.84
251.673
250.91
250.488
250.21
250.085
250.048
250.288
250.694
250.939
250.581
250.434
250.244
249.705
248.574
247.319
246.41
245.985
245.628
245.03
244.246
243.354
242.849
242.638
242.797
243.044
243.03
242.708
242.34
242.332
242.645
243.149
243.665
244.156
244.34
244.484
244.742
245.324
246.126
247.017
247.956
248.823
249.564
250.4
251.432
252.879
254.748
256.096
256.309
254.301
252.191
251.147
250.757
250.412
249.891
249.18
248.378
247.571
247.233
247.263
247.278
247.101
246.581
245.843
245.384
245.373
245.532
245.574
245.54
245.077
244.669
244.665
244.85
245.09
245.267
245.328
245.381
245.45
245.652
246.144
246.711
247.441
248.327
249.23
250.403
252.295
254.228
252.541
249.142
247.056
245.709
244.891
244.547
244.144
243.467
242.672
241.822
240.987
240.718
240.658
240.563
240.272
239.766
239.227
239.137
239.121
239.109
238.835
238.545
238.513
238.479
238.453
238.572
238.677
238.564
238.356
238.344
238.311
237.519
236.797
236.504
236.433
238.675
242.339
246.928
269.855
270.958
271.869
272.493
272.871
273.129
273.35
273.563
273.773
273.967
274.13
274.249
274.334
274.42
274.539
274.692
274.849
274.942
274.93
274.867
274.84
274.955
275.217
275.329
275.243
275.043
274.942
275.129
275.31
275.278
274.895
274.188
273.387
272.311
270.203
266.567
261.818
256.89
252.694
249.76
248.103
247.291
246.889
246.784
247.046
248.227
249.852
251.316
252.586
254.041
255.75
257.1
258.033
258.743
259.441
260.153
260.462
260.4
259.786
258.805
257.72
257.053
256.279
254.697
252.647
249.895
247.507
245.893
244.866
244.805
244.792
244.749
244.692
244.66
244.841
244.722
244.48
245.056
246.259
247.944
249.643
251.243
252.65
253.887
255.011
256.12
257.294
258.383
259.313
260.133
260.614
260.764
260.404
258.908
256.586
253.702
251.085
249.031
247.584
246.723
246.204
246.44
248.11
250.704
253.566
256.286
258.895
261.038
262.689
264.107
265.24
265.718
265.722
265.045
263.968
263.399
263.262
263.555
263.263
262.359
261.172
259.799
258.2
256.442
254.485
252.473
251.016
250.111
249.77
249.716
249.782
249.936
250.251
250.728
251.235
251.854
252.803
254.023
255.444
256.946
258.696
260.775
262.737
264.313
265.59
266.943
268.329
269.463
270.27
271.104
272.121
273.158
274.071
274.448
274.267
272.818
270.41
267.279
264.056
260.057
255.553
251.576
248.389
246.844
246.81
247.535
247.601
246.894
245.562
244.916
245.079
246.574
247.753
249.354
251.586
254.426
257.555
260.111
261.464
262.83
264.048
264.441
263.804
262.982
262.298
261.205
260.246
259.799
259.483
258.691
258.235
258.643
259.852
261.973
264.31
266.494
268.211
269.163
270.262
271.536
272.295
273.304
275.245
277.623
280.118
282.455
284.219
285.42
286.266
287.128
287.883
288.175
288.416
287.326
284.215
279.544
273.667
267.788
262.223
257.186
252.848
249.456
247.068
245.282
244.27
244.095
244.193
243.906
243.211
242.751
242.855
242.789
242.181
241.333
240.771
240.704
240.908
241.054
241.185
241.557
242.49
244.152
246.183
247.911
249.094
250.597
252.38
254.198
256.24
257.566
257.883
256.702
256.025
256.394
256.835
257.52
258.071
258.488
258.735
258.741
258.405
257.738
256.872
255.917
255.195
254.632
253.781
252.692
251.402
250.015
248.879
248.174
247.951
247.772
247.427
246.751
245.589
244.88
244.814
244.993
245.539
246.124
246.684
247.042
247.257
246.916
247.114
247.514
247.082
245.625
243.976
242.733
241.948
241.713
241.283
240.676
239.8
238.707
238.056
237.856
238.171
238.327
238.275
238.002
237.381
237.122
237.298
237.946
238.67
239.223
239.373
239.079
239.062
239.569
240.51
241.879
243.148
244.102
244.425
245.048
246.268
248.592
251.3
252.232
249.012
245.824
244.426
243.621
243.44
243.321
242.88
242.308
241.498
240.686
240.399
240.466
240.475
240.381
240.1
239.566
239.078
239.01
239.133
239.308
239.365
239.201
238.731
238.656
238.891
239.433
239.904
240.152
239.952
239.675
239.869
240.412
241.529
242.874
244.183
245.7
247.725
250.119
248.139
243.731
241.539
240.145
239.133
238.415
238.069
237.766
237.363
236.993
236.644
236.222
235.814
235.52
235.391
235.306
235.136
234.887
234.722
234.632
234.566
234.529
234.587
234.691
234.666
234.714
234.907
234.886
234.534
234.276
233.923
233.416
233.318
234.028
236.213
239.802
244.078
248.413
269.995
270.807
271.391
271.744
271.989
272.231
272.511
272.829
273.153
273.444
273.682
273.87
274.041
274.224
274.434
274.656
274.829
274.87
274.847
274.839
274.944
275.162
275.267
275.188
275.017
274.927
275.079
275.185
275.048
274.509
273.558
272.422
270.863
268.289
264.448
259.823
255.288
251.588
249.082
247.693
247.034
246.718
246.626
246.675
247.155
248.234
249.487
250.452
251.223
252.2
253.656
254.842
255.62
256.18
256.756
257.555
258.227
258.419
258.286
257.697
256.846
256.027
255.09
253.684
251.836
249.586
247.772
246.242
245.531
245.279
245.059
244.722
244.356
244.181
244.477
244.889
245.196
245.891
247.001
248.273
249.544
250.687
251.825
253.041
254.193
255.216
256.162
256.929
257.309
257.375
257.021
255.858
254.131
251.811
249.415
247.516
246.22
245.472
245.077
244.788
245.056
246.372
248.394
250.259
252.17
254.117
256.257
258.28
259.812
261.149
262.313
262.952
263.048
262.75
262.57
262.525
262.844
263.114
262.827
261.942
260.51
259.014
257.751
256.46
254.752
252.96
251.582
250.581
249.998
249.602
249.323
248.945
248.882
249.401
250.473
251.897
253.37
254.877
256.436
257.778
259.271
261.113
263.099
264.823
266.097
267.118
268.139
269.225
270.246
271.168
271.918
272.286
272.234
271.138
268.94
266.107
262.721
259.49
256.028
252.635
249.792
247.381
246.367
246.474
247.328
247.506
246.918
245.636
244.809
244.701
246.004
246.585
246.742
247.162
248.206
249.907
251.961
254.073
255.903
258.035
260.293
261.504
261.537
260.867
260.261
259.06
258.174
257.797
257.624
257.504
257.978
259.214
261.406
263.848
266.143
268.339
269.533
270.51
271.805
273.145
274.372
275.72
277.537
279.311
280.59
281.657
282.574
283.221
283.703
283.833
283.566
282.486
279.812
275.873
270.765
265.311
260.189
255.669
251.992
249.115
247.017
245.422
244.154
243.532
243.471
243.669
243.485
242.864
242.212
242.132
242.034
241.44
240.719
240.143
239.686
239.414
239.239
238.804
238.281
238.067
238.445
240.016
241.848
242.862
243.143
244.209
245.137
247.72
250.379
251.658
251.832
249.232
247.294
246.667
246.539
246.702
247.025
247.331
247.816
247.957
247.753
247.257
246.448
245.421
244.696
244.446
244.547
244.609
244.515
244.316
243.89
242.877
242.428
242.386
242.48
242.469
242.289
241.728
241.543
241.738
242.442
243.601
244.776
245.678
245.975
245.091
244.787
245.315
245.316
244.254
242.495
240.712
239.402
238.505
238.041
237.547
236.967
236.306
235.41
234.672
234.296
234.33
234.481
234.547
234.477
234.088
233.732
233.808
234.304
234.973
235.622
236.028
235.897
235.798
236.245
237.237
238.843
240.244
241.394
242.078
243.299
245.239
247.963
249.629
246.415
242.498
240.637
239.495
238.709
238.394
238.329
238.11
237.811
237.313
236.579
236.067
235.958
235.969
235.963
235.971
235.845
235.387
235.203
235.262
235.467
235.773
235.865
235.518
235.392
235.613
236.132
236.635
236.966
236.805
236.685
237.101
238.101
239.907
241.934
244.259
246.69
248.829
246.787
241.514
238.69
237.376
236.596
235.79
235.094
234.655
234.39
234.372
234.356
234.113
233.548
233.044
232.885
232.995
233.162
233.057
232.791
232.664
232.726
232.952
233.129
233.214
233.214
233.285
233.512
233.497
233.172
232.887
232.619
232.568
233.261
235.08
238.361
242.388
246.301
249.365
269.963
270.524
270.869
271.11
271.397
271.759
272.173
272.594
272.986
273.325
273.606
273.841
274.066
274.298
274.531
274.74
274.862
274.889
274.907
275.001
275.167
275.243
275.146
274.956
274.849
274.946
274.957
274.647
273.859
272.612
271.027
268.935
265.949
262.026
257.672
253.636
250.513
248.482
247.356
246.795
246.541
246.483
246.503
246.656
247.085
248.01
248.959
249.469
249.797
250.29
251.55
252.661
253.229
253.506
253.754
254.297
255.309
255.95
255.999
255.681
254.944
253.794
252.399
251.502
250.581
249.205
247.769
246.318
245.54
245.164
244.785
244.288
243.954
244.096
244.738
245.357
245.66
245.965
246.443
247.273
248.226
249.127
250.127
251.225
252.241
252.915
253.166
253.143
252.694
251.847
250.656
249.043
247.313
245.648
244.464
243.856
243.608
243.532
243.578
243.925
245.006
246.582
247.692
248.63
249.646
251.18
253.095
254.706
256.034
257.234
258.336
259.233
259.795
260.212
260.654
261.015
261.123
261.118
260.786
259.909
258.665
257.64
257.028
256.295
254.986
253.443
251.913
250.683
250.043
249.538
248.724
247.827
247.844
248.44
249.715
251.695
253.708
255.517
257.167
258.534
259.818
261.287
262.793
264.265
265.632
266.816
267.888
268.845
269.532
269.767
269.646
268.528
266.551
264.048
260.981
257.86
255.095
252.502
250.241
248.211
246.494
245.937
246.138
247.053
247.337
246.868
245.71
244.851
244.578
245.703
246.308
245.998
245.469
245.221
245.341
246.096
247.111
248.456
250.212
252.171
254.313
255.533
255.617
255.02
254.669
254.243
253.699
253.519
253.87
255.017
256.073
257.549
259.478
261.587
263.919
266.275
267.927
269.908
272
273.812
274.801
275.278
275.92
276.524
277.062
277.451
277.647
277.54
277.093
275.881
273.562
270.465
266.459
261.948
257.636
253.899
250.93
248.652
246.944
245.569
244.346
243.569
243.207
243.246
243.469
243.248
242.615
241.931
241.679
241.554
240.974
240.247
239.88
239.634
239.079
238.41
237.855
237.184
236.395
235.952
235.99
237.294
238.649
239.2
238.888
239.372
239.671
241.514
243.871
245.102
245.28
241.654
239.529
238.757
238.114
237.878
237.824
237.845
238.033
238.54
239.217
239.622
239.743
239.718
239.412
238.978
238.993
239.294
239.872
240.303
240.577
240.428
239.545
239.197
239.226
239.444
239.847
240.094
239.99
240.1
240.713
241.825
243.696
245.51
246.175
244.735
243.885
243.788
243.747
243.234
241.935
240.213
238.246
236.748
235.728
234.989
234.585
234.35
233.926
233.068
232.135
231.7
231.631
231.811
232.058
232.154
231.893
231.49
231.537
232.007
232.766
233.535
234.122
234.18
234.21
234.786
235.7
237.453
239.462
241.287
242.969
244.721
246.615
247.919
245.528
241.031
239.067
237.806
236.639
235.819
235.308
235.145
235.117
234.981
234.585
233.818
233.311
233.19
233.292
233.53
233.652
233.428
232.956
232.895
233.116
233.536
233.902
233.945
233.608
233.577
233.865
234.453
234.992
235.426
235.616
236.038
236.9
238.806
241.42
244.216
247.01
249.045
247.218
241.933
238.302
236.413
235.549
234.844
233.902
233.336
233.079
233.091
233.028
232.824
232.355
232.007
231.887
232.022
232.203
232.146
231.919
231.844
232.033
232.399
232.611
232.628
232.583
232.674
232.886
232.787
232.306
232.057
232.09
232.927
234.516
237.458
241.003
244.606
247.726
249.723
269.85
270.182
270.467
270.8
271.218
271.704
272.208
272.672
273.079
273.429
273.734
274.001
274.249
274.481
274.674
274.81
274.887
274.946
275.036
275.151
275.16
275.01
274.779
274.637
274.627
274.47
273.9
272.785
271.165
269.12
266.577
263.315
259.456
255.5
252.052
249.51
247.927
247.081
246.616
246.367
246.309
246.345
246.406
246.556
246.953
247.708
248.306
248.463
248.495
248.615
249.466
250.604
250.97
250.984
250.94
250.991
251.767
252.822
252.961
252.715
252.103
250.894
249.556
248.697
248.336
247.475
246.241
244.696
243.569
243.474
243.404
243.099
243.211
243.742
244.532
244.814
244.77
244.681
244.601
244.859
245.438
246.254
247.151
247.842
248.201
248.265
247.975
247.311
246.492
245.483
244.357
243.321
242.56
242.138
242.009
242.103
242.251
242.465
242.999
243.951
245.197
245.888
246.19
246.446
247.104
248.605
250.04
251.2
252.252
253.192
254.05
254.876
255.625
256.315
257.097
257.97
258.375
258.372
257.996
257.239
256.484
255.855
255.486
255.129
254.134
252.788
251.096
249.722
248.925
248.721
248.386
247.71
247.804
248.365
249.331
251.039
253.005
254.823
256.434
257.816
259.174
260.524
261.806
263.121
264.505
265.72
266.47
266.685
266.421
265.249
263.478
261.131
258.405
255.621
253.167
251.17
249.539
248.32
246.907
245.84
245.556
245.853
246.748
247.098
246.777
245.772
244.917
244.546
245.491
246.309
246.013
245.188
244.168
243.597
243.445
243.405
243.536
244.08
245.072
246.336
247.563
248.079
247.922
247.098
246.916
247.049
246.846
246.769
247.631
249.145
250.495
252.11
254.085
256.105
258.638
261.448
264.065
267.054
269.426
270.712
270.759
270.421
269.669
269.163
269.046
268.885
268.463
267.333
265.42
262.939
259.933
256.716
253.591
250.859
248.884
247.508
246.498
245.705
244.718
243.927
243.428
243.235
243.334
243.444
243.178
242.521
241.806
241.446
241.394
240.927
240.166
239.557
239.4
239.141
238.405
237.426
236.628
236.164
235.575
235.181
235.135
235.912
236.559
236.79
236.335
236.899
237.344
238.343
239.902
240.624
240.441
235.528
232.784
232.84
232.872
233.103
233.206
233.149
233.081
233.266
233.745
234.578
235.387
236.032
236.508
236.645
236.29
236.413
236.829
237.511
238.084
238.434
238.115
237.47
237.387
237.612
238.237
238.838
239.262
239.514
240.02
241.09
243.087
245.541
246.571
245.013
243.753
243.257
242.981
242.532
241.741
240.13
238.209
236.028
234.525
233.509
232.953
232.842
232.576
232.124
231.023
230.102
229.732
229.822
230.265
230.594
230.748
230.394
229.991
230.083
230.723
231.846
232.728
233.371
233.639
233.805
234.522
235.845
238.244
240.892
243.261
245.238
246.775
247.342
245.597
241.295
238.515
237.295
236.245
234.987
234.136
233.591
233.343
233.285
233.183
232.753
232.047
231.796
231.867
232.099
232.236
232.228
231.812
231.624
231.802
232.255
232.655
232.896
232.805
232.541
232.634
233.079
233.946
234.795
235.498
236.127
237.13
238.918
241.709
244.76
247.771
249.62
248.233
243.557
239.656
236.788
235.319
234.577
233.827
233.044
232.631
232.419
232.347
232.287
232.076
231.598
231.325
231.337
231.558
231.581
231.383
231.336
231.599
231.983
232.151
232.09
232.028
232.131
232.199
231.808
231.476
231.566
232.483
234.001
236.553
239.731
243.025
246.149
248.571
249.869
269.71
270.041
270.428
270.905
271.422
271.958
272.49
272.985
273.414
273.773
274.058
274.284
274.472
274.633
274.758
274.838
274.896
274.949
274.97
274.885
274.666
274.34
274.095
273.931
273.522
272.605
271.142
269.146
266.707
263.826
260.483
256.876
253.413
250.522
248.48
247.331
246.808
246.487
246.235
246.132
246.138
246.198
246.311
246.52
246.801
247.205
247.511
247.522
247.392
247.348
247.549
248.718
249.052
248.901
248.509
248.183
248.15
249.068
249.518
249.277
248.708
247.749
246.625
245.585
244.928
243.949
242.633
241.055
239.773
239.662
240.387
240.751
241.215
241.89
242.216
241.823
241.602
241.211
240.859
240.829
241.354
241.988
242.394
242.512
242.448
242.068
241.598
241.121
240.738
240.447
240.324
240.207
240.164
240.47
240.83
241.167
241.555
242.149
243.062
244.09
244.62
244.648
244.587
244.648
245.51
246.633
247.448
248.042
248.701
249.409
250.041
250.632
251.216
251.799
252.457
253.433
254.598
255.051
255.009
254.295
253.572
253.01
252.509
252.037
251.074
249.749
248.061
246.685
245.87
245.765
246.306
246.626
246.851
247.389
248.266
249.476
250.936
252.407
253.796
255.199
256.684
258.097
259.365
260.55
261.545
262.018
262.018
261.104
259.583
257.551
255.256
252.97
250.872
249.224
248.07
247.289
246.673
245.856
245.348
245.255
245.657
246.444
246.842
246.613
245.78
245.019
244.651
245.368
246.354
246.199
245.401
244.16
242.944
242.292
242.161
241.873
241.631
241.533
241.532
241.642
241.708
241.218
240.448
239.598
239.174
238.996
238.483
238.225
238.767
240.168
241.71
243.574
245.847
248.29
251.258
254.345
257.338
260.101
261.996
262.371
261.471
260.555
259.437
258.558
258.137
257.596
256.453
254.796
252.819
250.91
249.136
247.472
246.15
245.415
245.146
244.968
244.658
244.187
243.834
243.621
243.581
243.621
243.61
243.273
242.561
241.86
241.439
241.479
241.229
240.548
239.717
239.053
238.832
238.56
237.751
236.589
235.499
235.026
235.333
235.266
235.183
235.418
235.663
235.285
234.824
235.748
236.668
237.854
239.157
239.477
238.783
233.199
228.81
228.64
229.167
229.699
230.243
230.697
230.908
230.913
231.241
231.867
232.817
233.739
234.495
235.108
235.016
234.726
235.021
235.608
236.323
236.847
237.041
236.642
236.337
236.483
236.983
237.977
238.803
239.561
240.221
241.379
243.142
245.513
246.766
245.193
244.037
243.294
242.849
242.31
241.701
240.262
238.275
236.234
234.171
232.886
232.097
231.89
231.571
231.09
230.379
229.147
228.615
228.519
228.989
229.517
229.758
229.793
229.263
229.041
229.263
230.184
231.674
232.772
233.607
234.04
234.56
235.644
237.663
240.749
243.502
245.732
247.296
247.644
246.484
242.794
239.273
237.409
236.323
235.101
233.796
233.035
232.54
232.449
232.408
232.233
231.611
231.061
230.899
231.016
231.293
231.438
231.273
230.9
230.912
231.255
231.784
232.162
232.329
232.142
232.129
232.441
233.159
234.63
235.885
237.047
238.46
240.332
242.933
245.829
248.635
250.301
249.262
245.623
241.906
238.316
235.874
234.801
234.123
233.175
232.383
231.968
231.765
231.784
231.652
231.147
230.729
230.624
230.825
230.993
230.84
230.712
230.857
231.212
231.491
231.423
231.219
231.141
230.972
230.686
230.938
231.907
233.32
235.584
238.458
241.586
244.617
247.227
249.1
249.934
269.718
270.168
270.667
271.221
271.819
272.411
272.959
273.426
273.799
274.063
274.246
274.378
274.476
274.549
274.61
274.641
274.64
274.559
274.341
273.956
273.491
273.057
272.608
271.867
270.622
268.815
266.497
263.763
260.709
257.473
254.257
251.363
249.057
247.531
246.781
246.507
246.38
246.186
246.01
245.964
245.984
246.087
246.388
246.496
246.465
246.426
246.586
246.743
246.669
246.416
246.223
246.667
247.526
247.302
246.716
245.971
245.3
245.171
245.775
245.877
245.379
244.532
243.382
242.06
240.776
239.499
238.073
236.556
235.423
235.155
236.035
236.806
237.51
238.007
237.921
236.78
236.095
235.738
235.372
235.349
236.089
236.592
236.821
236.819
236.759
236.743
236.739
236.764
236.988
237.531
238.19
238.692
239.123
239.644
240.155
240.725
241.405
242.247
243.112
243.62
243.639
243.464
243.396
243.819
244.57
245.055
245.332
245.449
245.614
246.124
246.856
247.383
247.671
247.871
248.06
248.393
249.179
250.356
250.826
250.763
250.113
249.461
248.669
247.727
246.427
244.8
243.177
241.934
241.271
241.097
241.995
243.024
243.77
244.475
245.202
246.051
247.006
248.052
249.26
250.689
252.314
253.778
254.809
255.355
255.522
255.369
254.441
253.123
251.523
249.916
248.407
247.176
246.407
246.017
245.743
245.428
245.039
244.854
245.003
245.472
246.166
246.58
246.44
245.775
245.103
244.776
245.316
246.343
246.388
245.736
244.514
243.211
242.164
241.575
241.496
241.37
240.946
240.246
239.429
238.562
237.484
235.837
234.549
233.875
232.988
232.029
231.081
230.64
230.625
231.507
232.64
234.488
236.906
239.468
242.311
245.085
247.749
250.044
251.351
251.311
250.369
249.509
248.662
248.053
247.817
247.528
246.836
245.644
244.814
244.328
244.08
244.005
244.014
244.1
244.07
243.838
243.733
243.707
243.826
243.994
244.099
244.043
243.572
242.817
242.165
241.713
241.741
241.641
241.085
240.188
239.218
238.487
238.246
238.084
237.374
236.178
234.956
234.162
234.576
235.555
235.801
235.823
235.756
234.945
234.058
234.98
236.38
238.049
239.614
240.095
239.561
233.707
227.49
226.675
227.04
227.725
228.34
228.899
229.445
229.833
230.078
230.611
231.369
232.346
233.173
233.861
234.241
233.881
233.785
234.183
234.866
235.569
236.07
236.169
235.911
235.928
236.344
237.16
238.6
239.857
241.071
242.418
243.999
245.639
246.773
245.274
244.223
243.831
243.154
242.469
241.63
240.536
238.613
236.682
234.761
232.93
231.781
230.99
230.528
230.013
229.55
228.922
228.043
227.724
227.849
228.494
228.948
229.152
229.075
228.572
228.649
229.085
230.214
232.157
233.711
234.857
235.742
236.812
238.354
240.831
243.718
246.098
247.693
248.442
247.949
245.028
241.022
238.12
236.653
235.502
234.081
232.992
232.383
232.019
231.919
231.737
231.36
230.542
230.188
230.184
230.503
230.806
230.865
230.435
230.157
230.308
230.828
231.47
231.897
232.051
232.049
232.365
233.004
234.314
236.381
238.392
240.364
242.502
244.815
247.192
249.466
250.869
249.902
247.442
244.452
240.674
237.166
235.19
234.236
233.289
232.177
231.559
231.22
231.141
231.006
230.49
229.939
229.778
229.992
230.223
230.103
229.802
229.829
230.202
230.62
230.488
229.952
229.733
229.697
230.035
231.123
232.522
234.571
237.208
240.233
243.182
245.823
248.009
249.439
249.961
269.882
270.431
271.025
271.634
272.236
272.798
273.283
273.672
273.915
274.007
274.039
274.071
274.107
274.121
274.06
273.926
273.697
273.296
272.738
272.082
271.355
270.543
269.419
267.85
265.819
263.362
260.574
257.61
254.676
251.984
249.722
248.035
246.939
246.424
246.339
246.332
246.19
245.98
245.825
245.804
245.889
246.142
246.426
246.367
246.036
245.615
245.605
246.334
246.336
245.893
245.297
244.835
245.6
246.143
245.493
244.569
243.513
242.566
242.435
242.694
242.427
241.456
240.231
238.819
237.163
235.402
233.82
232.463
231.346
230.916
231.401
232.351
233.211
233.681
233.487
232.117
230.98
230.555
230.259
230.251
231.197
231.901
232.362
232.697
233.182
233.794
234.478
235.091
235.668
236.371
237.1
237.856
238.572
239.247
239.945
240.699
241.495
242.272
242.773
242.853
242.764
242.748
243.043
243.5
243.702
243.813
243.818
243.705
243.627
243.633
244.281
245.214
245.315
245.114
244.685
244.31
244.237
244.59
245.63
246.048
246.03
245.555
244.367
242.956
241.343
239.549
237.852
236.492
235.716
235.396
235.505
236.531
237.69
238.625
239.584
240.526
241.457
242.433
243.545
244.853
246.242
247.434
248.178
248.397
248.379
247.994
247.216
246.454
245.792
245.237
244.879
244.69
244.633
244.675
244.569
244.429
244.455
244.769
245.259
245.892
246.299
246.212
245.708
245.218
244.967
245.399
246.247
246.348
245.815
244.794
243.752
242.877
242.046
241.343
241.274
241.431
240.944
239.812
238.42
236.835
234.491
231.908
230.459
229.861
229.194
227.672
225.93
225.41
225.435
225.708
226.325
227.832
230.249
232.71
235.185
237.581
239.869
241.849
242.746
242.816
242.188
241.47
240.976
240.651
240.722
241.134
240.829
240.806
241.148
241.79
242.52
243.295
243.907
243.897
243.482
243.321
243.502
243.883
244.254
244.553
244.527
244.016
243.278
242.659
242.234
242.151
242.074
241.555
240.815
239.734
238.753
238.067
237.693
237.732
237.19
236.103
234.76
233.844
233.759
235.061
236.45
236.925
236.728
235.69
234.51
234.823
236.38
238.155
239.911
241.108
241.35
236.002
227.526
226
225.978
226.393
227.129
227.824
228.537
229.329
229.92
230.018
230.433
231.079
231.97
232.816
233.499
233.628
233.233
233.22
233.629
234.331
235.084
235.601
235.829
235.833
236.169
236.935
238.326
240.264
242.048
243.723
245.197
246.267
246.742
245.299
244.434
244.314
243.974
242.947
241.918
240.738
239.281
237.273
235.544
233.652
231.564
230.27
229.456
228.99
228.966
228.817
228.238
227.314
226.967
227.125
227.857
228.381
228.669
228.68
228.444
228.801
229.544
231.129
233.604
235.651
237.273
238.762
240.194
241.776
243.915
246.243
248.156
249.162
249.315
247.25
243.187
239.456
237.392
236.054
234.828
233.327
232.359
231.739
231.346
231.16
230.937
230.326
229.641
229.452
229.583
229.982
230.24
230.123
229.537
229.412
229.713
230.481
231.306
231.877
232.248
232.601
233.366
234.513
236.71
239.42
241.961
244.31
246.552
248.521
250.122
251.101
250.3
248.597
246.557
243.141
239.294
235.993
234.32
233.236
232.069
231.099
230.582
230.332
230.111
229.633
228.99
228.766
228.935
229.166
229.15
228.79
228.679
228.969
229.246
228.951
228.43
228.46
228.974
230.146
231.559
233.493
236.002
238.928
241.809
244.44
246.759
248.589
249.649
249.973
270.016
270.616
271.239
271.845
272.402
272.86
273.174
273.362
273.415
273.396
273.317
273.229
273.125
272.957
272.66
272.208
271.593
270.81
269.89
268.847
267.657
266.227
264.452
262.33
259.933
257.371
254.79
252.371
250.291
248.661
247.487
246.712
246.338
246.27
246.309
246.236
246.018
245.788
245.665
245.764
245.987
246.162
246.243
246.058
245.655
245.241
245.135
245.967
246.172
245.618
244.735
243.917
243.73
244.712
244.805
243.867
242.707
241.426
240.277
240.068
239.856
239.012
237.678
236.129
234.328
232.369
230.681
229.626
228.678
228.125
228.21
229.063
229.878
230.289
230.168
228.972
227.873
227.467
227.239
227.223
228.384
229.236
229.926
230.769
231.791
232.813
233.849
234.763
235.4
236.053
236.79