/*--------------------------------*- C++ -*----------------------------------*\
| =========                 |                                                 |
| \\      /  F ield         | OpenFOAM: The Open Source CFD Toolbox           |
|  \\    /   O peration     | Version:  2312                                  |
|   \\  /    A nd           | Website:  www.openfoam.com                      |
|    \\/     M anipulation  |                                                 |
\*---------------------------------------------------------------------------*/
FoamFile
{
    version     2.0;
    format      ascii;
    arch        "LSB;label=32;scalar=64";
    class       volScalarField;
    location    "0.01";
    object      p;
}
// * * * * * * * * * * * * * * * * * * * * * * * * * * * * * * * * * * * * * //

dimensions      [1 -1 -2 0 0 0 0];

internalField   nonuniform List<scalar> 
243728
(
131102
131102
131102
131102
131102
131102
131102
131102
131102
131102
131102
131102
131102
131102
131102
131102
131102
131102
131102
131102
131102
131102
131102
131102
131102
131102
131102
131102
131102
131102
131102
131102
131102
131102
131102
131102
131102
131102
131102
131102
131102
131102
131102
131102
131102
131102
131102
131102
131102
131102
131102
131102
131102
131102
131102
131102
131102
131102
131102
131102
131102
131102
131102
131102
131102
131102
131102
131102
131102
131102
131102
131102
131102
131102
131102
131102
131102
131102
131102
131102
131102
131102
131102
131102
131102
131102
131102
131102
131102
131102
131102
131102
131102
131102
131102
131102
131102
131102
131102
131102
131102
131102
131102
131102
131102
131102
131102
131102
131102
131102
131102
131102
131102
131102
131102
131102
131102
131102
131102
131102
131102
131102
131102
131102
131102
131102
131102
131102
131102
131102
131102
131102
131102
131102
131102
131102
131102
131102
131102
131102
131102
131102
131102
131102
131102
131102
131102
131102
131102
131102
131102
131102
131102
131102
131102
131102
131102
131102
131102
131102
114510
109558
101200
99947.8
100437
100882
100849
100568
100315
99893.5
99801
99906.2
100040
100026
99955.9
100090
99987
99616.9
99390.2
99586.2
99819.2
99719.1
99419.8
99347.7
99734.4
100080
100173
100073
99854.4
99725.5
99883.9
100255
100658
100866
100770
100604
101093
103106
105887
106050
104572
102472
100970
100133
99668
99398.4
99323.9
99311.4
99260.6
99248.5
99127.7
98837.6
98746.9
99175.6
99638.4
99586.3
99275
99249.7
99662.1
100306
100584
100551
100348
100149
100557
101304
101967
102239
102174
102126
102254
102588
103086
103699
104475
105807
107799
108562
107195
105465
104366
103786
103443
103142
102740
102207
101722
101586
101887
102355
102423
101946
101106
100394
99992.1
99949.3
100117
99943.3
99460.1
98712.1
97729.9
96886.5
96487.8
96458.3
96530.5
96421.7
96139.7
95591
94926.9
94848.3
95508.4
96870.8
98528.9
99097.2
98501.2
97674.6
97478.8
97839.3
98463.2
99046.4
99323.7
99277.3
99206.7
99395.6
100250
101436
102151
102763
103525
104326
104895
105369
105955
106661
107279
107700
108015
108377
108852
109369
109792
110044
110097
110056
110032
110013
109983
109905
109684
109293
108790
108099
107075
105889
104855
103927
103148
102411
101384
99811
97603.6
95044.1
92445
89616.1
86655.4
84084
82317.7
81047.8
79134.4
77179.7
75438.7
74227.7
73655
74058.3
75460
77207.6
79607.6
83198.2
88014.6
91756.5
94950.8
98884.2
102621
105929
108914
111416
113251
114660
116525
118491
119526
119475
119896
121010
122120
122345
121917
121327
121020
121297
121699
121562
120535
119140
118478
117930
117339
116392
114875
112962
110907
108730
106619
104601
102573
100721
98784
95991.8
92627.5
89238.2
86121
83456.5
81492
80369
79915.6
79224
78213.8
77142.6
75953.3
74776.3
74696
75793.4
77709.8
80129
82516.2
84359.3
85666.6
86006.8
86245.6
87726.7
89924.6
92835.9
96697.1
101382
105024
107196
108591
109267
110417
112462
115996
120007
122088
122769
121037
118208
117051
118051
119988
121867
122551
121166
117392
114279
113001
112934
113471
113766
112369
109656
106577
103723
100867
98034
95519.4
93398.2
91600.3
89806.1
87776.3
85500.7
83206.8
81098.8
78988.6
76786.7
74894
73921.1
73547.4
73601
73964.6
74692.9
76052.8
78105.2
80815.4
83870.1
86391.9
87809.5
88291.8
90219.4
93591.4
96962
99959.4
102439
103849
104615
106264
108373
110257
111889
113298
114562
115713
116761
117515
118187
119031
120057
120736
120509
119546
118609
118865
119387
119074
117699
116425
115584
114794
113734
112347
110810
109239
107591
105921
104108
102012
99710.6
97254.8
94662.3
92054.6
89564.6
87407.2
85854.1
84844.3
83659.7
82162.9
80637.9
78946.8
76845.7
74677
72895
71917
72306.9
73774.3
75506.1
77583.3
80256.6
83349.9
86369.8
89150.7
91535.2
93615.7
95496.9
97615.8
100310
103106
105881
108558
111044
113097
114726
115986
116877
117880
119309
120591
121017
120827
121442
122452
123325
123575
122826
121624
121609
122571
123386
123270
121878
120560
120325
120480
120351
119682
118647
117736
117020
116174
114959
113498
111976
122854
113262
104390
98596.5
97667.2
98114
98990.1
99997.8
100538
100293
99941.1
99765.5
99786.1
99660.9
99392.2
99245.6
99033.8
98984.9
99213.5
99094.5
98827.8
98563.3
98658.4
98968.6
99008.8
98933.9
98837.1
98682.9
98613.4
98860.1
99424.1
99922.9
100169
100106
99888.5
99750.3
101270
105566
112240
111707
107264
103099
101150
100452
100403
99730.8
98841.3
98106.8
97564.3
97558
98344.3
99049
99075.2
98562.4
97934.2
97570.7
97759.7
98788.9
99818.3
99973.6
99496.5
98722.6
98484.3
99169.1
100567
101599
102051
101713
100861
100541
101330
102522
103760
104982
105935
107108
110296
111554
109385
107407
105981
104279
102989
102079
101482
101205
101183
101402
101625
101385
100806
100088
99717.4
99763.6
100108
99876.3
99332.5
98615.3
97747.9
97360.6
97284.1
97209.8
96754.9
96160.4
95686.9
95390.7
95307.5
95379.7
95528.3
95758.2
96535.3
98154.2
100806
101486
100843
100076
99602.2
99118.6
98913
99021.3
99345.7
99495.2
99555
99502.1
99813.8
100448
101199
102234
103262
103762
104051
104532
105379
106120
106509
106688
106968
107598
108369
108960
109154
109055
108930
109019
109322
109710
110053
110112
109819
109292
108724
107995
107230
106307
105021
104074
103685
103454
102895
101400
99033.9
96595.5
93917
90465.5
87095.9
84224.9
82100.3
80950
79462.3
77565.4
75971.5
74828.4
74200.7
73967
74473.2
76177.8
79115.1
83415.3
89253.5
93660
96978.8
100498
103630
106676
109544
112016
113991
115145
115959
117792
119627
120360
119889
120200
121234
122097
122328
121763
120865
120477
120557
120833
120791
120163
118654
117600
116718
115901
114842
113358
111407
109154
106920
104591
102181
99724.5
97474.9
95865.4
93965.2
91072.1
87949.9
84726.4
81814.4
79735.6
78571.7
78491.6
78940.9
78961.1
78669.5
77922.9
76984.6
76500.4
77210.7
78975.5
81942.4
85008.1
87212.9
88586
89356.8
90348.2
91603.8
93050.7
95410
99364.2
104104
107489
109959
111787
112180
113012
114905
117594
120515
122321
122800
121016
118203
116942
117637
119203
120668
121123
119998
116653
113588
112012
111339
111453
111340
110081
107816
105088
102134
99260.7
96539.6
94304.5
92312.9
89803.3
87067.4
84451.9
82184.8
80348.1
79042.7
77988.7
77227.5
76920.7
76693.1
75968.7
74970.7
74961.6
76251.5
78686
81606.2
84459.3
87201.3
89335.6
90871.7
92323.7
94338.1
96841.4
99437.6
101941
104155
105732
106852
108229
109800
111362
112984
114521
115899
116945
117656
117976
118398
119189
120169
120637
120134
119071
118262
118408
118633
118129
116960
115845
114752
113590
112265
110796
109270
107713
106094
104359
102520
100471
98126.1
95632.3
93072.8
90428.3
87956.2
86071.5
85082.7
84532.2
83697.8
82675.2
81372.9
79504.6
77091.3
74708.4
73609.7
73732.1
74590.8
76073.1
77710.9
79856.6
82732.5
85895.2
89132.2
92435.9
95412.8
97845.4
99621.1
101414
103577
105861
108178
110521
112680
114641
116342
117496
118171
119071
120372
121445
121586
121230
121820
122754
123503
123647
122961
121845
121688
122430
123053
122854
121578
120517
120218
120084
119615
118762
117806
116921
116005
114898
113618
112209
126783
118824
110299
102698
98222.8
96431.4
96597.6
97457.8
98416.1
98687.6
98720
98853
98931.3
98533.3
98026.1
97872.1
97805.5
97820.6
97594.3
97224.6
97141.6
97410.4
97836.5
97849.7
97644.8
97484.5
97577.6
97929.6
98511.9
98956
99029.7
99040.4
98896.6
98730.9
99215.7
100327
103036
109558
119619
116455
109401
104940
102841
102160
101112
99481.4
97627.8
96766.1
96644.1
97551.8
98608.2
98574
97897.3
96807.6
96314.1
96564
97752.6
98484.9
98423.8
97973.6
97283.4
97221.7
98030.1
99543.4
100335
100532
100241
99528.3
99415.5
100427
102297
103970
105032
105733
105622
107412
113430
116459
114403
111214
107203
103437
101604
100636
100615
101477
101668
101034
100051
99039.8
98555.7
98695.9
99715.8
100272
99865.7
98842.6
97405.3
96586.1
96394.9
97069.6
97650.8
97381
96585.2
95146.8
94228.7
94151.1
94628.6
95693
96420.3
96955.8
97310.9
99222.5
103253
104207
104246
103175
101819
100305
99733.8
99731
99918.7
99965.1
99726.1
99150.2
99036.9
99674.4
100787
101894
102437
102683
103052
103854
104806
105288
105470
105644
106223
107159
107891
108126
107977
107788
108133
108908
109633
110109
110168
109766
109008
108227
107624
107174
107038
106819
106278
105524
105545
106084
105426
103025
99908.7
97384.3
94563.7
90857
87376
84510.7
82301.1
81072.4
79805.2
78009.5
76390
75224.5
74445
73860.4
73983.9
75764.8
78979.7
83773.4
90155.1
95630.5
99206.1
102115
104664
107131
109599
111989
114355
116129
116409
116848
118776
120463
120900
120160
120298
121135
122070
122047
121431
120504
119833
119780
120021
120043
119489
118092
116162
115203
114078
113023
111694
109922
107632
104936
102057
99258.7
96967.4
95309.6
93614.4
91719.1
89238.7
86451.1
83544.6
80855.7
79036.5
78127
77922.7
77977.5
78276.8
78705.8
79081.7
79184.7
79427.5
80459.2
81995
83978.4
86063.1
88332.3
90711.2
92805.8
94470.1
95423.3
96531.1
98922
103068
107308
110223
112549
113544
113930
114934
116406
118450
120788
122288
122500
120614
117851
116551
116931
118174
119226
119282
118233
115532
112785
111196
110056
109574
108856
107446
105499
103117
100475
98051.1
95802.4
92935
89663.8
86400.2
83740.5
81703.5
80247.8
79498.6
79346.5
79339.9
79287.5
79037.5
78103.3
77278.1
77786.4
79079.4
80911.7
82596.1
83945.5
85908.4
89050
92155.2
94597.7
96792
98043.6
98888.7
100973
103528
105933
107783
108933
109835
111162
112632
114079
115506
116777
117740
118177
118142
118387
119130
120019
120201
119430
118492
118088
117948
117494
116865
116159
115068
113786
112411
110899
109295
107642
105957
104346
102762
100973
98835
96509.2
94256.9
91975.6
89581.6
87414.3
85853.6
85005.8
84350.5
83294
82046.1
80687.4
78912.8
77215
76357.8
75872.1
75457.9
76045
77529.5
79690.9
82646.5
86092.9
89533.3
92860.6
95778.2
98257.7
100452
102573
104735
106754
108534
110374
112365
114368
116195
117577
118544
119192
119933
121147
122063
121986
121524
122021
122860
123523
123606
122938
121927
121751
122281
122626
122276
121170
120411
119974
119485
118767
117838
116846
115821
114697
113442
112071
128760
122798
115171
107472
101179
97123.4
95772.3
95821.5
96564.4
97134.1
97360.4
97615.9
97731.4
97338.4
96787.4
96594.4
96633.3
96609.8
96244.2
95834.6
95865.1
96333.5
96738.2
96605.7
96205.9
96112.3
96479.7
97351.3
98051.7
98178.3
97998
97756.5
97912.8
98614.6
100064
101867
104963
113915
124912
120355
113366
108882
105882
103363
100521
97784.2
96668
96332.8
96895.1
97578.1
97331.2
96649.2
95635.5
95175.3
95474.6
96599.9
97046.6
96795.1
96161.4
95640.6
95725.9
96642
98185.6
98722.7
98645.1
98230.7
97895.5
98296.3
99603.2
101839
103253
104005
104463
104308
105673
109768
118847
123655
120170
113577
106621
102857
101262
100767
101426
101087
100084
98877.8
97722.5
97333.6
97774.9
99065.7
99207.3
98599.6
97730.6
96498.1
95882.8
95988.5
96866.4
96939.1
96503.9
95874.4
94842.8
94078.8
93937.7
94466.6
95504.2
96257
96725
96734.7
97301.9
101100
107087
108340
108112
105719
102875
101343
101549
101627
101348
100361
98992.5
98028.2
98299.6
99407.6
100736
101257
101256
101417
102058
103221
103984
104123
104163
104590
105533
106431
106651
106486
106499
107092
108310
109319
109506
109247
108542
107750
107584
107855
108108
108444
108664
108411
107859
107301
107777
109315
108296
104700
100892
97829.5
95016.1
91730.7
88346.6
85429.5
83255.8
81655.3
79969.9
78037.9
76254.4
74948.4
74099.5
73707.9
73851.8
75301.9
78345.9
83547.8
90458.1
97164.6
101174
104075
106180
107790
109546
111686
114277
116574
117470
116685
117591
119576
121015
121218
120278
120251
120921
121587
121682
120966
119985
119269
118942
119073
119239
118754
117304
115290
113746
112444
111074
109549
107717
105579
102936
100058
97228.9
94636.6
92536.8
91141.1
89751.7
87663.6
85328
82947.2
80526
78331.2
76977.5
76457.4
76979.7
78713.5
80077.2
81477
82881.8
83781
83946.9
83881.3
84897.1
87271.3
90955.6
93963.4
95753.3
96695.4
97914.2
100113
103724
107836
110829
113254
114540
114725
115128
115911
117038
118763
120750
121926
121860
119923
117357
116127
116226
117133
117726
117414
116181
113969
111670
110164
108771
107565
106327
104613
102429
100068
98053.1
95990.7
93326.5
90441.1
87689
85292.7
83339.8
81801.2
80635.5
79792.5
79160.7
78589.4
78093.9
78319.3
79546.8
81232.1
82736.7
83712.2
83571.4
83933.9
86004.3
89282.8
93289.6
96563.2
98891.4
99808.2
99877.4
101123
103184
105545
107455
108798
109987
111469
112801
113763
114868
116178
117298
118091
118400
118111
118255
118984
119561
119325
118694
118291
117753
116851
116166
115801
115244
114217
112708
111135
109523
107850
106132
104448
102788
101158
99296.9
97140.6
95047
93176.2
91369.7
89474.2
87634.6
86246.8
85115.2
83786.6
82656.9
81812.6
80711.9
79547.7
78796.3
78000.4
76687.4
76380.4
77726.5
80174.3
83436.4
86933.9
90151.2
93139.4
95824
98408.1
101082
103622
105822
107455
108853
110511
112406
114348
116064
117372
118616
119593
119917
120439
121606
122431
122249
121697
122067
122820
123469
123458
122769
121979
121843
122012
121939
121437
120687
120072
119485
118784
117900
116888
115791
114569
113249
111860
129783
125489
119123
111936
105102
99432
96393.9
94799.7
94735.6
95126.1
95555.9
96241.4
96481.6
96068.5
95491.7
95313.3
95398
95300.2
94838.4
94392
94495.4
95053.2
95319.5
95091
94743.3
94816.9
95384.4
96380.2
96802.7
96917.1
96767.5
96828.9
97459.6
98963.1
100637
102604
107923
118878
128506
124793
118770
113348
108594
104039
99785.8
97591.7
96748.6
96639.6
96873.9
96447.1
95755.5
94620.9
93937.2
94108.4
95158
95652.7
95406.3
94762.5
94012.3
94042.1
94830.9
96475.4
97142
97104.4
96646.1
96305.9
96771.2
98089.1
100446
101739
102452
103020
103272
104911
108238
114672
124585
127090
122059
114124
107693
104544
102926
102418
101187
99665
97747.8
96519.6
96198.6
96793.3
97818.9
97702.2
97068.3
96182.3
95224.2
94850.6
95382.2
96123.1
95799.1
95045.4
94332.4
93866.5
93725.3
94286.1
94898.2
95008.9
95096.2
95217.7
95491.7
96165.1
98527.1
104714
112056
112109
110188
106678
103820
103698
104368
104219
102851
100014
97812
97432.6
97968.3
99419.9
100191
100192
99815.7
100210
101244
102466
102800
102683
102938
103805
105024
105311
105018
104963
105470
106808
108392
108679
108342
107594
107155
107325
108574
110322
110988
110825
110096
108345
106295
106047
108504
111399
111128
107838
104122
100379
96679.3
92861.8
88693.5
85258.4
82988.9
81105.9
79500.2
78094.5
76850.4
75544.6
74597.8
74001
73462.6
74333.4
77340.1
83140.2
90755.1
97955.7
102550
105689
107851
108883
109431
111362
114011
116420
118000
117760
117079
118307
120159
121287
121273
120296
120055
120461
120984
121070
120431
119395
118517
118120
117810
117710
117514
116479
114611
112517
110660
108757
106971
105145
103242
100737
97903.1
95012.7
92338.3
90204.2
88444.9
86868.1
85316.9
83496
81495.5
79239.8
77232.6
76445.8
76563.1
77937.3
80123.3
82705.8
85188.8
86479.6
86597.8
85787.8
86456.3
88396.4
91868.1
94354.7
95678.1
96707.3
98374.4
100768
104303
107923
110870
113530
115591
116383
116010
116001
116403
117198
118638
120358
121227
120948
119057
116838
115725
115623
116078
115867
115115
113677
111922
110355
108866
107398
105713
103745
101629
99534.9
97496
95236.6
92987.7
91090.7
89445.8
87562.1
85521.9
83412.2
81062.2
79284.6
78155.9
77412.9
77495
79229.7
82068.6
84664.7
85906.7
85941.1
84625.5
85574
87823.1
91287
94515.8
96922.7
98471
99297.1
100620
102369
103951
105545
107004
108335
110008
111708
112970
113576
114523
115716
116647
117469
118212
118410
117972
118152
118703
118819
118748
118393
117494
116406
115621
115229
114922
114280
113006
111552
109975
108267
106521
104744
103076
101542
99781.8
97758
95647.1
93710.8
92225.6
90924.5
89728.5
88718.4
87172.8
85239.1
83729.9
82508.7
81116.5
80044.4
79391.7
78708.3
77799.1
78089.1
79453.4
81708.2
84601.4
87281.2
89845.4
92818.6
96182.1
99331.6
102207
104854
106609
107486
108936
110820
112712
114455
115800
116929
118475
119855
120458
120110
120643
121862
122614
122387
121766
122026
122675
123221
123100
122599
122147
121832
121526
121160
120707
120175
119549
118810
117910
116879
115749
114516
113191
111814
130346
127308
122140
115754
109114
102835
98011.8
95258.6
93568.1
93312.4
93465.1
94290.5
94934.8
94688.3
94075.7
93881.1
94024.6
93899.4
93383.5
92939.9
93041.9
93626.1
93870.9
93560
93391.9
93817.7
94722.6
95379.3
95548.6
95533.2
95703.8
96263.9
97496.3
99373.2
100856
104586
112953
123074
130891
128560
123169
116855
110450
104592
100415
98602.7
97647.9
97138.5
96312
95275.8
93714.6
92758.4
92724.2
93539.3
94275.4
94138.1
93588.9
92664.6
92337.4
92783.8
94319.3
95377.8
95488.7
95255.2
94818.2
95140.8
96255.8
98581.4
100115
100911
101720
102276
103967
107284
112855
119576
126721
127775
122504
115965
111395
108253
105942
103552
100675
97356.1
95852.7
95327.3
95780
96786.2
96575.2
95751.5
94616
93579.1
93220.2
93861.1
95082.5
94927
94119.6
93100.2
92495.2
92417.4
93125.3
94435.5
94690.9
94544.5
94088.7
94138.2
94900.2
96625.7
100990
109496
115657
114452
111352
107773
106299
106968
107467
106320
103216
99397.1
97758.6
97458.8
98239
99031.9
99246.6
98723.6
98551.8
99274.1
100707
101363
101229
101231
101869
103210
104092
104024
103651
103895
104824
106605
107524
107639
107282
107007
107289
108625
110890
111811
111529
110780
108694
106330
105367
106418
111422
115645
115914
112494
107300
101840
96541.5
91745.8
87687.6
84964
83038.8
81553.9
80439.9
79343.3
77896
75917.1
74072.9
73171.6
72797.3
73701.2
76832.1
83363.4
91868.9
98852.3
103554
106466
108465
109579
110385
111928
114033
116117
117794
118599
118276
117839
118771
120319
121266
121184
120179
119730
119895
120229
120404
119836
118780
117882
117348
117233
117139
116473
115353
113540
111001
108428
106259
104214
102679
101088
98810.5
96228.2
93307.3
89959.7
87271.7
85469.7
84379.3
83360.4
81857.2
80367.9
79116.5
77870.7
77130.3
77491.1
78974.1
82007.3
85532.6
87326.7
87649.6
88058.4
89415.9
91411.3
93709.4
95468.8
96722.3
97958.7
99321.9
101315
104257
107171
109945
112830
115538
117261
117467
117012
116794
116627
117088
118223
119634
120217
119754
117940
116261
115289
114885
114873
113890
112557
111084
109780
108578
107328
105911
104079
101943
99717
97330.6
94943.4
92903.5
91366.6
90238.4
88820.6
86938.5
84774
82096.8
79612.1
78064.7
77527.1
78409.2
81538.7
84986.9
86678.1
86861.1
85691.4
86244.4
88090.2
90824.4
93675.5
95543
96147.1
96864.7
98890.9
101347
103376
104963
105960
106799
108294
110078
111670
112639
113153
114245
115395
116159
116818
117637
118203
118102
117784
118035
118360
118488
118241
117338
116128
115196
114766
114808
114655
113498
111796
110103
108437
106698
104955
103421
102109
100475
98417.5
96146
94107
92665.4
91684
91175.4
90986.1
89711.9
87524.7
85152.9
82888.2
80903
79906.6
79447.1
79022.9
79381.4
80694.1
82309.2
83951.9
85351.6
86882.8
89328.9
92590
96563.8
100375
103389
105656
106555
107455
109481
111566
113391
114689
115305
116377
118095
119672
120701
120654
120075
120896
122076
122700
122389
121747
121886
122354
122785
122858
122588
122063
121440
120874
120407
119924
119323
118593
117755
116771
115659
114472
113178
111802
130665
128547
124398
118908
112760
106495
100763
96498.4
93946.2
92194.8
91559.1
91929.1
92739.6
92701
92374.3
92397.8
92643.4
92389.1
91757.1
91344
91454.9
92069.7
92266.5
91973.8
91940.7
92506.3
93514.3
94030
94091.2
94145.7
94749.3
95825.4
97792.3
99525.6
102136
109057
118080
126013
132521
130878
125905
119261
112304
105952
102413
100378
98970.2
97534.2
95749.5
93314
91890.4
91551.8
91934.4
92832.8
92799
92294.2
91329.7
90745.1
90958.2
92101.4
93461.7
93675.6
93512.6
93083.5
93429.1
94389.1
96550.5
98531.5
99375.8
100296
101055
102580
105594
111098
117575
122560
127121
126971
123510
119486
116000
112258
108315
103976
99025.9
96428
95348.4
95186.8
96067.9
95820.4
94960.3
93481.4
91899.5
91345.3
91662.8
93214.9
93770.8
93320.6
92364.3
91157.4
90798.3
91104.5
92630.3
93547.1
93715.1
93693.3
93314.4
93795.8
95162.4
98224.9
104165
113036
117549
115927
113248
110761
109910
110187
109578
107088
102975
99999
98718.4
98397.1
98496.6
98356.4
97676.9
97028.1
97464.7
98767.8
99940.4
100005
99575.7
99782.2
100743
102293
102764
102783
102789
103330
104636
105960
106424
106657
106857
107323
108460
110375
111486
111400
110896
109547
108053
107075
107379
110933
117462
119500
117247
112479
106224
100323
95706.2
91688
88732.1
86580.8
84852.9
83306.2
81558.2
79308.5
76982.3
75005.9
73247.1
72524.2
72697.6
73981
77098
83867.1
92296.2
98104.2
102075
105408
108014
110165
112345
113854
114316
114718
116289
118065
119283
119103
118378
119040
120267
121098
120972
119948
119289
119219
119403
119721
119268
118361
117595
116999
116570
116203
115387
113826
111861
109445
106699
104225
102076
100365
98902.8
96730.6
94219.6
91243.9
88011
85489.2
83709.9
82432.7
81528.4
80593
79735.7
78810.7
77965.8
78052
78942.5
81464.6
85350.2
87836.3
88912.4
90304.7
91985.3
93522.3
94885.5
96688.2
98651.6
100320
101527
102357
104143
106367
108929
111741
114588
116884
117981
118015
117639
117127
116617
116851
117687
118661
118830
118114
116630
115449
114746
114225
113447
112298
110873
109370
107969
106707
105651
104409
102573
100443
97996.5
95553.8
93396.3
91454.1
89870.6
88429.3
86722.6
84701
82375.4
80502.8
79683.6
79687.6
81131.3
84644.1
86905.2
87158.7
86071.5
86426.9
88452.3
91379.1
93788.5
95013.9
95021
95400.4
97214.3
99823.7
102549
104325
105599
105880
106739
108353
110016
111424
112092
113005
114298
115220
115558
116057
116919
117669
117937
117702
117660
117925
118222
118047
117177
116216
115287
114626
114348
114334
113688
112315
110423
108497
106693
104909
103378
102388
101220
99232.7
96951.4
94920.5
93477.3
92399.1
91749.7
91749.7
91197.5
89179.8
86750.4
83867.1
81329.4
80258
79665.9
79650.1
80922.1
82795.7
84112.7
85193
85683.6
87015.8
89907.8
93430.6
97866.7
101416
103707
104734
105643
107794
110277
112471
114128
114677
114925
116231
117773
119197
120437
121096
120631
120334
121200
122220
122684
122292
121642
121623
121888
122297
122569
122308
121676
120979
120378
119824
119211
118466
117628
116683
115640
114479
113143
111692
130847
129389
126113
121392
115879
109995
103989
98783.1
94878.5
92360.4
90477.4
89794.8
90130.9
90266.2
90244.8
90715.8
91148.3
90812.4
90033
89623.6
89781.6
90441.4
90611.2
90332.5
90336.8
90999.1
92116.2
92627.8
92748.6
93067.4
93992.9
95707.1
97915
100178
105438
114838
122474
128118
133237
132029
127587
121050
114266
109143
105694
102854
100362
97573.7
94047.4
91803.8
91021.6
90832.3
91483.9
91516.6
90969.9
89913.5
89011.4
89046.2
89845
91523.6
92035.9
91951.8
91341.3
91398.9
92249.9
94043.4
96681.4
97919.1
98892.5
99716.4
101031
103504
108223
115011
120306
124054
126620
127173
125416
123194
119607
114988
109669
103602
98896.6
96898.5
95861.8
95988.3
95484.8
94485
92874.8
90661.2
89650
89667.7
90787.5
92001.6
91885.4
91306.6
90216.2
89431.1
89395.3
90310.1
91554.5
91919.8
92260.1
92443.9
92875.7
93987.6
96259.4
100008
107104
115882
118200
117625
116442
114695
113535
112360
110133
106806
103669
101823
100575
99657.4
98599.7
96948.9
95583.4
95662.1
96576.6
98241.1
98763.6
98524.9
98097.9
98530
99806.4
100659
101043
101460
102122
103431
104779
105186
105440
105969
106647
108068
110376
111616
111502
110735
109431
108818
108656
109501
111882
115891
120616
120255
116503
110112
104834
100649
97053.4
94117.1
91747.8
89337.7
86625.4
83663.7
80827.7
77986.7
75808.4
74314.5
73164.9
72658.1
73027.8
74819.7
77209
83311.3
92394.6
98588.9
101796
104789
108128
111177
113768
115207
114245
113588
115089
117142
119050
120049
119419
118519
119050
120151
120899
120680
119590
118752
118446
118628
119114
118955
118236
117420
116539
115659
114559
113383
112089
110026
107338
104508
101773
99344
97415.9
95664.8
93464.5
91019.4
88449.7
85988.7
84032.6
82592.1
81584.3
80456.4
79373.2
78293.8
77636.3
77787.5
78933.2
82036
87113.8
89955.7
91408.2
92624.5
93345.2
94073.9
95743.3
98190
100576
102394
103559
103658
104596
106741
109345
111990
114237
116102
117558
118360
118272
117757
117185
116565
116539
116992
117380
117054
116179
115271
114507
113865
113092
112073
110771
109149
107615
106287
105108
103801
102338
100549
98518.9
96305.5
94022.8
91698.2
89500.2
87512.5
85604.6
83869.4
82524.9
81799
81724.5
82633.4
84607.6
87069.3
88418.4
87450.6
86883.2
88201.9
91102.3
93672.1
94825.9
94794.9
93930.1
95616.7
98154.3
101562
103849
105177
105337
105605
106845
108340
109736
110678
111436
112971
114412
115193
115198
115560
116344
117077
117451
117378
117257
117455
117849
117988
117371
116416
115463
114558
113844
113495
113181
112334
110783
108804
106842
105088
103483
102356
101514
99972.7
98029.5
96251.4
94791.2
93455.3
92432.4
91869
91539.3
89916
87704.4
85217.6
82861.7
81473.7
80759.9
80792.2
81833.5
83344.4
84065.1
84282.3
85570.9
88286.7
91691.8
95803.6
99509.8
101922
102593
103336
105688
108430
111054
113095
114009
114011
114998
116496
117684
118637
119814
120878
121314
120692
120669
121477
122331
122618
122150
121513
121392
121603
121989
122226
122039
121495
120794
120027
119170
118233
117262
116258
115254
114235
113081
111678
130953
129954
127405
123388
118439
113008
107297
101665
96709.7
93076.8
90651.9
88560
87757.7
87741.1
87762
88509.2
89172.2
88875.1
88131.7
87834.6
88118.9
88774
88857.8
88631.1
88687.6
89332.3
90521
91194.4
91577.4
92284.2
93647.5
95602.8
98058.5
102246
110878
119716
125767
129800
133470
132635
128535
122547
117344
113131
109026
105166
101177
96673.7
93038.9
91373.3
90483
90535.3
90478
89831.3
88600.9
87277.2
87021.4
87516.2
89194.7
90133.1
90254.2
89788.8
89496.6
90146.1
91508.3
94152.7
96064.7
97202.1
98313.3
99547.4
101708
105489
111773
117658
121758
124414
127084
128070
127429
125352
121295
116199
110072
104034
100731
98729.6
97713.4
96521.6
94837.2
92522.3
89909
88808.5
88582
89161.5
90052.2
89896.9
89267.2
88320.7
87687.8
87699.1
88710.4
90081.1
90281.6
90180.4
90249.2
90917.9
92112.4
94556.9
97663.5
101696
110640
117802
119301
119848
119628
117972
116138
113590
110178
107310
105520
104099
102524
100676
97963.7
95158.6
94390.6
94580.5
96043.4
97086.9
97156.3
96715.5
96752.1
97700.1
98941.2
99139.4
99259.2
100070
101419
103439
104505
104844
105042
105728
106843
109188
111626
112157
111823
110711
109845
109325
110068
112204
114204
118753
122168
119774
113852
109187
105358
102609
100049
97092.9
93991.3
90408.1
86689.8
83098.2
79616.7
77193
75713.9
74647.7
73716.7
73310.9
73870.1
74479.1
76010
82043.7
92393.8
99270.4
102693
105420
108333
111681
114077
115291
114606
113680
114537
116280
118543
119907
120295
119178
118544
119046
120076
120645
120240
119067
118127
117743
118080
118712
118874
118213
117032
115647
114211
112784
111245
109740
107550
104663
101700
98967.7
96581.7
94740.7
93213.5
91323
89330.8
87354.8
85196.3
82955.9
81114.3
79222.5
77586.7
77093.5
77048
77519.5
79234
83391.7
89319
91760.7
92713.5
93395.1
93642
94826.1
97211.7
100112
102291
103916
105116
105804
106526
107548
108856
110614
112644
114786
116808
118186
118366
117917
117648
117113
116493
116299
116180
115736
115131
114453
113885
113416
112703
111631
110314
108822
107321
105839
104345
102854
101362
99854.3
98302
96421.1
94387.3
92245.8
89904.1
87482.7
85477.8
84170.8
83631.6
83837.2
84268.9
84948
86087
88241.5
88998.3
88732.9
89363.8
91465.1
93713.2
94468.7
94135.7
93324.9
94754.1
97081
100389
103098
104567
104688
104606
105869
107321
108676
109572
109658
110898
112560
113969
114799
115007
115547
116105
116562
116890
116934
116769
116825
117167
117612
117493
116653
115652
114639
113681
112834
112171
111657
110889
109439
107639
105848
104065
102375
100995
99908.3
98587.3
97478.3
96563.9
95313.2
93857
92502.5
91384.3
89832.5
87777.5
85888.4
84399.2
83358.9
82642.3
82206.1
82206.7
82612.9
83016
83928.5
86097.2
89535.6
94065.1
97852
100191
100747
101216
103623
106714
109784
112034
113007
112632
113729
115533
117003
117719
118063
119058
120332
121301
121415
120739
120897
121600
122339
122509
122028
121528
121386
121511
121768
121960
121794
121196
120309
119227
118024
116824
115662
114571
113652
112881
111870
131015
130339
128363
124987
120577
115550
110195
104659
99270.4
94608.2
91086.9
88469.4
86352.2
85447.5
85204.2
85779.9
86650.3
86460.9
85981.4
85998.4
86530.1
87047.9
86965.1
86735.2
86979.1
87651.2
88915.7
89873.6
90600.4
91753.2
93375.5
95657.2
99318.8
106829
116326
123256
128069
130839
133641
132936
129192
124641
120589
116296
111710
106792
101347
96156.2
93279
91590.8
90721.5
90105.1
88989.5
87418.9
85641.2
85090.3
85360.5
86714.6
87956
88142.7
87848.9
87466.2
87953.5
89208.1
91613.6
93912
95125.3
96374.8
97795
99910
103350
109099
115391
119257
121967
124653
127534
129305
129216
126493
122196
116483
110447
106341
103667
101614
99449.7
96907.5
93254.8
89727.9
88451.9
87900.1
88170.8
88880.1
88627.3
87590.1
86029.8
85136.9
85132.2
86178.4
88350.3
89242.7
89260.7
88464
88365.6
89283.4
91388.3
95154.3
98393.8
104109
114636
120029
121031
122000
121723
119953
117792
114521
111426
109658
108177
106358
103917
100490
96424.3
94525.1
93978.4
94538.5
95433.2
95320.1
94759.3
94611
95330.7
96977.4
98066.7
98142.9
98032.4
98860.8
100480
102758
103968
104801
105446
106317
107757
110172
111880
112227
111974
111489
110918
110602
111700
112881
114905
119989
121500
117919
114137
110590
107988
105532
102121
98372.4
94033.1
89512.1
85067.3
81461.8
79465.3
78311.1
77571.9
76975.2
75950.6
74538.5
72988.3
72127.5
73361.2
79672.7
92351.5
101115
105102
107531
108990
110515
112392
113848
114839
115607
115559
116173
117570
118950
119880
120143
119112
118651
119058
119813