/*--------------------------------*- C++ -*----------------------------------*\
| =========                 |                                                 |
| \\      /  F ield         | OpenFOAM: The Open Source CFD Toolbox           |
|  \\    /   O peration     | Version:  2312                                  |
|   \\  /    A nd           | Website:  www.openfoam.com                      |
|    \\/     M anipulation  |                                                 |
\*---------------------------------------------------------------------------*/
FoamFile
{
    version     2.0;
    format      ascii;
    arch        "LSB;label=32;scalar=64";
    class       volScalarField;
    location    "0.01";
    object      rho;
}
// * * * * * * * * * * * * * * * * * * * * * * * * * * * * * * * * * * * * * //

dimensions      [1 -3 0 0 0 0 0];

internalField   nonuniform List<scalar> 
243728
(
1.82733
1.82733
1.82733
1.82733
1.82733
1.82733
1.82733
1.82733
1.82733
1.82733
1.82733
1.82733
1.82733
1.82733
1.82733
1.82733
1.82733
1.82733
1.82733
1.82733
1.82733
1.82733
1.82733
1.82733
1.82733
1.82733
1.82733
1.82733
1.82733
1.82733
1.82733
1.82733
1.82733
1.82733
1.82733
1.82733
1.82733
1.82733
1.82733
1.82733
1.82733
1.82733
1.82733
1.82733
1.82733
1.82733
1.82733
1.82733
1.82733
1.82733
1.82733
1.82733
1.82733
1.82733
1.82733
1.82733
1.82733
1.82733
1.82733
1.82733
1.82733
1.82733
1.82733
1.82733
1.82733
1.82733
1.82733
1.82733
1.82733
1.82733
1.82733
1.82733
1.82733
1.82733
1.82733
1.82733
1.82733
1.82733
1.82733
1.82733
1.82733
1.82733
1.82733
1.82733
1.82733
1.82733
1.82733
1.82733
1.82733
1.82733
1.82733
1.82733
1.82733
1.82733
1.82733
1.82733
1.82733
1.82733
1.82733
1.82733
1.82733
1.82733
1.82733
1.82733
1.82733
1.82733
1.82733
1.82733
1.82733
1.82733
1.82733
1.82733
1.82733
1.82733
1.82733
1.82733
1.82733
1.82733
1.82733
1.82733
1.82733
1.82733
1.82733
1.82733
1.82733
1.82733
1.82733
1.82733
1.82733
1.82733
1.82733
1.82733
1.82733
1.82733
1.82733
1.82733
1.82733
1.82733
1.82733
1.82733
1.82733
1.82733
1.82733
1.82733
1.82733
1.82733
1.82733
1.82733
1.82733
1.82733
1.82733
1.82733
1.82733
1.82733
1.82733
1.82733
1.82733
1.82733
1.82733
1.82733
1.59709
1.51854
1.41431
1.40095
1.40577
1.41231
1.41319
1.41149
1.40986
1.40603
1.40586
1.40724
1.40924
1.40945
1.40878
1.41008
1.4087
1.40411
1.40099
1.40242
1.40338
1.40077
1.39572
1.39324
1.39511
1.39617
1.39449
1.39022
1.3844
1.37946
1.37746
1.37741
1.37765
1.37584
1.37062
1.36474
1.36602
1.38302
1.40964
1.41252
1.39952
1.38097
1.36895
1.36417
1.36346
1.36449
1.36768
1.37151
1.37458
1.37764
1.37919
1.37879
1.38016
1.38672
1.39334
1.39387
1.39119
1.39088
1.39539
1.40177
1.40325
1.40141
1.39732
1.39268
1.39393
1.39836
1.40141
1.39988
1.39444
1.38905
1.38522
1.38355
1.38364
1.38524
1.38892
1.39852
1.41579
1.42164
1.40803
1.39127
1.38174
1.37782
1.37623
1.375
1.37269
1.36876
1.36499
1.36427
1.36809
1.37338
1.37393
1.36854
1.35908
1.35055
1.34525
1.34366
1.34388
1.34064
1.33405
1.32478
1.31311
1.30298
1.29791
1.29718
1.29773
1.29666
1.29421
1.2895
1.28426
1.28534
1.29469
1.31238
1.33445
1.34483
1.34386
1.34179
1.34623
1.35678
1.37024
1.38318
1.39235
1.39787
1.40275
1.40934
1.42284
1.43997
1.45086
1.45956
1.46975
1.47967
1.4862
1.49107
1.49635
1.50197
1.50546
1.50563
1.50348
1.5004
1.49714
1.49297
1.48625
1.47621
1.46279
1.44721
1.43087
1.41416
1.3975
1.38127
1.36507
1.34902
1.33425
1.31974
1.30399
1.2895
1.27778
1.26883
1.26273
1.25723
1.24904
1.23585
1.21665
1.19396
1.17054
1.14459
1.11702
1.09292
1.07666
1.06541
1.04757
1.02916
1.01304
1.0026
0.998636
1.00497
1.02341
1.04552
1.07509
1.11861
1.17792
1.22951
1.27919
1.34158
1.40373
1.46182
1.51554
1.5609
1.5948
1.62027
1.64744
1.67428
1.68882
1.69059
1.6967
1.70883
1.71811
1.7142
1.69604
1.6653
1.6269
1.58769
1.54953
1.51267
1.47864
1.45198
1.44223
1.43751
1.43471
1.43102
1.42322
1.41238
1.40078
1.3873
1.37324
1.3586
1.34191
1.32563
1.30785
1.2804
1.24578
1.20995
1.17643
1.14769
1.12577
1.11264
1.1074
1.09962
1.08802
1.0754
1.0614
1.04753
1.04598
1.05652
1.07561
1.10026
1.12437
1.14233
1.1544
1.15621
1.1568
1.17041
1.19181
1.22037
1.25797
1.30634
1.34896
1.3789
1.40739
1.43626
1.47562
1.52944
1.59977
1.6689
1.70623
1.71902
1.6994
1.65888
1.62797
1.6091
1.59609
1.58603
1.57235
1.54684
1.50159
1.46722
1.45354
1.45302
1.45951
1.46339
1.45068
1.42429
1.39384
1.36503
1.33561
1.30604
1.27933
1.25637
1.23648
1.21653
1.19384
1.16844
1.14278
1.11909
1.09524
1.07036
1.04899
1.03768
1.0333
1.03391
1.03775
1.04573
1.06058
1.08314
1.11284
1.14561
1.17238
1.18768
1.19383
1.21584
1.25256
1.28823
1.31928
1.34495
1.36003
1.36887
1.38763
1.41251
1.43629
1.45801
1.4788
1.50059
1.5241
1.5505
1.57743
1.60529
1.63244
1.65159
1.65655
1.64183
1.60825
1.57079
1.54987
1.53951
1.52852
1.51114
1.49663
1.48767
1.47979
1.46928
1.45563
1.44031
1.4243
1.40724
1.38973
1.37043
1.34791
1.32301
1.29636
1.26817
1.23967
1.21222
1.18816
1.17066
1.15887
1.14512
1.1283
1.1115
1.093
1.07005
1.04609
1.0267
1.01622
1.02054
1.03669
1.05575
1.07856
1.10789
1.14188
1.17493
1.20488
1.23037
1.25282
1.27359
1.29716
1.32655
1.35679
1.38665
1.41532
1.44332
1.46873
1.49021
1.50871
1.52461
1.54255
1.56568
1.58773
1.60031
1.60425
1.61306
1.62291
1.62559
1.61709
1.59496
1.56885
1.55808
1.56018
1.56445
1.56132
1.54572
1.53187
1.52921
1.53052
1.52919
1.52237
1.51168
1.50214
1.49445
1.48539
1.47258
1.45724
1.44122
1.73609
1.62614
1.52114
1.45133
1.43735
1.44206
1.45132
1.46226
1.46703
1.46359
1.45874
1.456
1.45577
1.45406
1.45052
1.44826
1.4452
1.4439
1.44511
1.44306
1.43897
1.4347
1.43434
1.43591
1.43464
1.43207
1.42894
1.42459
1.42112
1.42108
1.42429
1.42646
1.42579
1.4216
1.4155
1.4106
1.42348
1.46664
1.53525
1.53021
1.48462
1.44161
1.42258
1.41803
1.42076
1.41649
1.40924
1.40362
1.39999
1.40155
1.41246
1.42189
1.42325
1.41905
1.41293
1.40941
1.41172
1.42302
1.43418
1.43567
1.4298
1.41991
1.41614
1.42171
1.4347
1.44363
1.4461
1.43964
1.4264
1.41927
1.42334
1.43194
1.44099
1.44968
1.45608
1.46472
1.49484
1.50547
1.48263
1.46256
1.44915
1.43278
1.42068
1.41264
1.40779
1.40633
1.40729
1.41051
1.41348
1.4113
1.40522
1.39702
1.39251
1.39252
1.39515
1.39161
1.38411
1.37482
1.36379
1.35821
1.35592
1.3533
1.34666
1.33876
1.33279
1.32885
1.32735
1.3277
1.32956
1.33257
1.34203
1.36141
1.39252
1.40437
1.40109
1.3974
1.39834
1.39909
1.40147
1.40784
1.41633
1.42262
1.42823
1.43139
1.43738
1.44759
1.45865
1.47226
1.48496
1.49177
1.49589
1.50179
1.511
1.51846
1.52162
1.52184
1.52214
1.5253
1.529
1.52966
1.52488
1.51527
1.50404
1.49358
1.48381
1.47331
1.461
1.44499
1.42522
1.40357
1.38267
1.3617
1.34213
1.32349
1.3034
1.28864
1.28144
1.27818
1.27289
1.25926
1.23774
1.21566
1.19101
1.15848
1.12661
1.09966
1.08029
1.07079
1.0577
1.04027
1.02615
1.01728
1.01474
1.01683
1.02767
1.0508
1.089
1.1432
1.21637
1.2782
1.33083
1.38902
1.44335
1.4954
1.54345
1.58395
1.61539
1.63453
1.64792
1.67149
1.69359
1.70303
1.69899
1.70329
1.71454
1.7223
1.72095
1.70614
1.67942
1.64855
1.61405
1.57728
1.53899
1.5023
1.46769
1.44608
1.43477
1.42672
1.41831
1.40784
1.39381
1.37712
1.36056
1.34272
1.32329
1.30241
1.28249
1.26831
1.25077
1.22217
1.1904
1.15649
1.12501
1.10236
1.08925
1.08785
1.09197
1.09157
1.08756
1.07871
1.06753
1.06143
1.06791
1.08548
1.11533
1.14644
1.16835
1.18127
1.18796
1.19729
1.20982
1.22486
1.24959
1.29245
1.34814
1.39318
1.43434
1.47642
1.50773
1.54511
1.59204
1.64263
1.68892
1.71644
1.72437
1.70382
1.66468
1.63621
1.61873
1.60506
1.59124
1.57243
1.54519
1.50188
1.46522
1.44645
1.43881
1.44002
1.43939
1.42741
1.40522
1.37796
1.34806
1.31841
1.28986
1.26611
1.24473
1.21751
1.18765
1.15895
1.13387
1.11342
1.09881
1.08683
1.07798
1.07392
1.07085
1.06239
1.0516
1.0516
1.0656
1.09192
1.12331
1.15376
1.1831
1.20613
1.22324
1.23981
1.26252
1.28963
1.31653
1.34219
1.36542
1.38303
1.39698
1.41467
1.4357
1.45733
1.48093
1.50529
1.52999
1.55385
1.57689
1.59885
1.62256
1.64704
1.66407
1.66711
1.65108
1.61829
1.58261
1.55855
1.54205
1.52546
1.50741
1.49321
1.48049
1.46818
1.4548
1.44
1.42444
1.40843
1.39168
1.37351
1.35402
1.33215
1.30708
1.28022
1.2524
1.22357
1.19669
1.17597
1.16449
1.1578
1.14804
1.1366
1.12227
1.10189
1.0755
1.04915
1.0372
1.03872
1.04838
1.06452
1.08238
1.10609
1.13764
1.17214
1.20743
1.24273
1.27421
1.3004
1.32009
1.34002
1.36385
1.38884
1.41427
1.4411
1.4679
1.49344
1.51664
1.53536
1.54999
1.567
1.58842
1.60732
1.61556
1.61696
1.62538
1.63483
1.63703
1.62814
1.60663
1.5801
1.56582
1.56381
1.56429
1.5594
1.54421
1.53245
1.52884
1.52712
1.52198
1.51299
1.50294
1.49349
1.48368
1.47194
1.45841
1.44352
1.78175
1.69523
1.60002
1.51202
1.46049
1.43854
1.44061
1.45074
1.46166
1.46419
1.46419
1.46535
1.46605
1.46127
1.45521
1.45318
1.45214
1.45182
1.44846
1.4435
1.44228
1.44471
1.44855
1.44794
1.44467
1.44192
1.44183
1.44419
1.4493
1.45281
1.45208
1.45044
1.44665
1.44254
1.44572
1.45594
1.48444
1.55447
1.66092
1.62656
1.54967
1.50126
1.47908
1.47299
1.46309
1.44696
1.42755
1.41875
1.41792
1.42914
1.44259
1.44303
1.43626
1.42426
1.41892
1.42181
1.4354
1.44383
1.44297
1.43754
1.42925
1.42806
1.43602
1.45185
1.45952
1.46055
1.45594
1.44586
1.44291
1.45118
1.46912
1.48513
1.49415
1.49906
1.49527
1.5119
1.57384
1.60354
1.58122
1.54737
1.50517
1.46473
1.44545
1.43604
1.43648
1.4471
1.44976
1.44378
1.43343
1.42247
1.41708
1.41841
1.4291
1.43501
1.43028
1.41826
1.40109
1.39067
1.38775
1.39365
1.39893
1.39496
1.38431
1.36686
1.35545
1.35391
1.35806
1.36888
1.37635
1.38212
1.38627
1.40805
1.4523
1.46767
1.47006
1.46072
1.45044
1.4382
1.43468
1.43783
1.44333
1.44695
1.44781
1.44442
1.44427
1.45326
1.46818
1.48177
1.48884
1.49249
1.49755
1.50704
1.51774
1.52317
1.52501
1.5264
1.53161
1.54018
1.54606
1.54604
1.54085
1.53403
1.5322
1.53367
1.53354
1.52916
1.51842
1.50138
1.47928
1.45597
1.43411
1.414
1.39765
1.38169
1.36372
1.34459
1.33637
1.33403
1.32541
1.29952
1.26825
1.24405
1.21723
1.18159
1.14827
1.12139
1.10137
1.09159
1.08146
1.06605
1.05286
1.04485
1.04149
1.04136
1.04988
1.07509
1.11843
1.18079
1.26117
1.33594
1.39001
1.43834
1.48208
1.52276
1.56141
1.59637
1.62907
1.65277
1.65824
1.66515
1.68743
1.70648
1.71195
1.70453
1.70665
1.71581
1.72516
1.72279
1.71099
1.69009
1.66443
1.63703
1.60593
1.57026
1.53119
1.49089
1.45434
1.43391
1.41918
1.40765
1.39497
1.37945
1.35991
1.33644
1.31094
1.28595
1.26552
1.2511
1.23571
1.21774
1.19339
1.16524
1.13547
1.10754
1.08786
1.07769
1.07487
1.07508
1.07789
1.08217
1.08563
1.0863
1.08827
1.0983
1.11397
1.1342
1.15509
1.17825
1.20286
1.22508
1.24275
1.25392
1.26845
1.29886
1.35175
1.4088
1.45744
1.50639
1.54305
1.5715
1.60305
1.63438
1.66731
1.70022
1.72089
1.72444
1.70289
1.66587
1.64058
1.62504
1.61263
1.59651
1.57246
1.54239
1.50139
1.46492
1.44384
1.42946
1.42337
1.41553
1.40108
1.38151
1.35756
1.33061
1.30559
1.28205
1.25168
1.21681
1.18177
1.15292
1.13058
1.11436
1.10584
1.10363
1.10305
1.10195
1.0987
1.08818
1.07897
1.08438
1.09853
1.11831
1.13626
1.15065
1.17171
1.20563
1.23943
1.26668
1.29119
1.3051
1.31444
1.33617
1.36272
1.38945
1.41207
1.42828
1.44361
1.46436
1.48779
1.5123
1.53756
1.5615
1.5835
1.60225
1.61797
1.63706
1.65809
1.67292
1.67331
1.65606
1.6274
1.59781
1.57038
1.54418
1.52246
1.50556
1.48953
1.47353
1.45779
1.44163
1.425
1.40795
1.39055
1.37383
1.35721
1.33831
1.31567
1.2909
1.2667
1.24199
1.21597
1.19239
1.17525
1.16556
1.15815
1.14642
1.13262
1.11764
1.09814
1.07934
1.06992
1.06471
1.06033
1.06688
1.08339
1.10716
1.13936
1.17674
1.21408
1.24987
1.28121
1.30795
1.33202
1.35557
1.37956
1.40217
1.42289
1.44549
1.47125
1.49771
1.52284
1.54473
1.56303
1.57742
1.59176
1.61032
1.62568
1.6299
1.6295
1.63689
1.64569
1.64773
1.63914
1.61829
1.59219
1.57596
1.56988
1.56529
1.55691
1.54272
1.53313
1.52753
1.52162
1.5136
1.50366
1.4931
1.48217
1.47022
1.45696
1.44248
1.80213
1.7376
1.6541
1.5687
1.49713
1.44925
1.4333
1.43397
1.44295
1.44997
1.45278
1.45586
1.45723
1.45269
1.44635
1.44408
1.4445
1.44426
1.44008
1.43516
1.43538
1.44049
1.44504
1.44342
1.4384
1.43701
1.44059
1.45001
1.45747
1.45843
1.4558
1.45226
1.45315
1.45973
1.47532
1.49504
1.52856
1.62695
1.74545
1.69535
1.61786
1.56817
1.53543
1.50747
1.47549
1.44526
1.43362
1.42988
1.43651
1.44505
1.4429
1.436
1.42441
1.41889
1.42239
1.43578
1.44111
1.43853
1.43128
1.4247
1.42522
1.43518
1.45261
1.45833
1.45721
1.45178
1.44699
1.45028
1.46358
1.48765
1.50237
1.50948
1.51325
1.51005
1.52289
1.56592
1.66457
1.71419
1.67626
1.60455
1.5274
1.48542
1.46814
1.46312
1.47097
1.46781
1.45744
1.44422
1.4313
1.42685
1.43174
1.44649
1.44808
1.44107
1.43112
1.41669
1.40901
1.40948
1.41862
1.41902
1.41319
1.40512
1.39253
1.38279
1.3805
1.38527
1.39613
1.40405
1.40878
1.4086
1.41494
1.45734
1.5233
1.54033
1.53859
1.51332
1.48443
1.46967
1.47338
1.47637
1.4753
1.4662
1.45287
1.44362
1.44721
1.46122
1.4778
1.48457
1.48499
1.48727
1.49509
1.50857
1.51749
1.51924
1.51969
1.5242
1.53435
1.54376
1.54538
1.54243
1.54093
1.54502
1.55563
1.5632
1.56136
1.55347
1.53923
1.52293
1.51234
1.50512
1.49671
1.48816
1.4777
1.46203
1.44316
1.424
1.41882
1.42122
1.40668
1.36526
1.32368
1.29177
1.26319
1.23003
1.19619
1.16778
1.14769
1.13404
1.11973
1.10293
1.08792
1.07839
1.07406
1.07575
1.08542
1.10665
1.1478
1.21524
1.30229
1.38693
1.4441
1.48723
1.52065
1.54683
1.57297
1.60228
1.63476
1.66262
1.67373
1.66609
1.67682
1.69873
1.71485
1.71738
1.70755
1.70763
1.71514
1.72203
1.72207
1.71145
1.69472
1.67553
1.65384
1.63025
1.60175
1.56523
1.52127
1.4776
1.44584
1.42135
1.40215
1.38392
1.36456
1.34358
1.3183
1.29104
1.26399
1.23896
1.21854
1.20514
1.192
1.17153
1.14773
1.123
1.09783
1.07493
1.0608
1.0552
1.0608
1.07966
1.09458
1.10894
1.12276
1.13201
1.13402
1.13337
1.14412
1.16962
1.2088
1.2416
1.26301
1.27664
1.29618
1.32926
1.38031
1.43929
1.4911
1.54059
1.57719
1.59868
1.61791
1.63644
1.65508
1.67927
1.70494
1.71993
1.71995
1.69798
1.66492
1.64357
1.6304
1.6198
1.60247
1.57501
1.54099
1.50157
1.46607
1.44289
1.42333
1.40773
1.39294
1.37441
1.35165
1.32721
1.30624
1.28458
1.25639
1.22555
1.1959
1.17004
1.14894
1.13228
1.11937
1.10984
1.10279
1.09647
1.09099
1.09337
1.10621
1.12378
1.13996
1.15034
1.14879
1.15292
1.1756
1.21125
1.25452
1.29015
1.31602
1.32709
1.32916
1.34324
1.36588
1.39336
1.41797
1.43728
1.45673
1.4806
1.50424
1.52536
1.54827
1.57233
1.59321
1.61056
1.62461
1.63438
1.64893
1.66665
1.67711
1.67327
1.65944
1.63993
1.61218
1.57803
1.54794
1.52579
1.5073
1.48814
1.46779
1.44822
1.42981
1.41169
1.39349
1.37579
1.35836
1.34127
1.32169
1.29893
1.27662
1.25643
1.23679
1.21623
1.19629
1.18122
1.16888
1.15431
1.1419
1.1326
1.12049
1.10765
1.09934
1.09062
1.07634
1.07312
1.0882
1.11514
1.15062
1.18846
1.22346
1.25611
1.28544
1.31362
1.34299
1.37155
1.39682
1.41633
1.43399
1.45578
1.4812
1.50763
1.53246
1.55452
1.57665
1.59497
1.60433
1.61378
1.62959
1.6419
1.64382
1.64204
1.64775
1.65577
1.6583
1.64987
1.62984
1.60625
1.58947
1.57787
1.56696
1.55467
1.54209
1.53257
1.52454
1.51588
1.50575
1.49468
1.48291
1.46987
1.45587
1.44119
1.81301
1.76625
1.69637
1.61677
1.54001
1.47552
1.44015
1.42156
1.4208
1.42552
1.43074
1.43901
1.44203
1.43731
1.43075
1.42879
1.42987
1.42888
1.42377
1.41873
1.42001
1.42678
1.4301
1.42751
1.4234
1.4243
1.43109
1.44279
1.44766
1.4489
1.44698
1.44736
1.45402
1.47101
1.48986
1.51184
1.57105
1.69316
1.79831
1.75762
1.69107
1.63031
1.57675
1.52509
1.47612
1.4511
1.44198
1.44111
1.44403
1.43969
1.43224
1.41895
1.41077
1.41279
1.4254
1.43152
1.42891
1.42137
1.41232
1.41252
1.42146
1.44063
1.44854
1.44813
1.44236
1.43786
1.44275
1.45709
1.48373
1.49804
1.50579
1.51157
1.51308
1.52991
1.56616
1.63683
1.74646
1.77127
1.71626
1.62811
1.5557
1.52026
1.50251
1.4972
1.48327
1.4665
1.44547
1.43134
1.42736
1.43417
1.44647
1.44546
1.4387
1.42851
1.41693
1.41213
1.418
1.42642
1.4225
1.41371
1.40488
1.3987
1.39665
1.40241
1.40893
1.4095
1.40999
1.41107
1.41385
1.42125
1.44768
1.51725
1.59928
1.60043
1.57991
1.54083
1.50984
1.50927
1.51832
1.51756
1.50354
1.47226
1.44824
1.44465
1.45109
1.46875
1.47861
1.47901
1.47486
1.47959
1.49178
1.50611
1.51005
1.50867
1.51155
1.52138
1.53528
1.53852
1.53483
1.53365
1.53826
1.55215
1.56867
1.57041
1.56491
1.55385
1.54584
1.54354
1.55237
1.56653
1.56805
1.55943
1.54349
1.51578
1.48388
1.47255
1.48987
1.50817
1.49967
1.46074
1.41773
1.37586
1.33568
1.29479
1.25026
1.21402
1.19114
1.17304
1.15842
1.14622
1.13581
1.12484
1.11778
1.11567
1.11638
1.12887
1.16822
1.24173
1.33593
1.42395
1.48268
1.52434
1.55407
1.56957
1.57898
1.60388
1.63545
1.66347
1.68197
1.67984
1.67275
1.68646
1.70669
1.71927
1.71926
1.70878
1.70643
1.71116
1.71678
1.71742
1.7092
1.69449
1.67898
1.66406
1.64449
1.62178
1.59411
1.55686
1.51286
1.47062
1.4363
1.40501
1.37888
1.35572
1.33322
1.30603
1.27629
1.24639
1.21901
1.19777
1.18036
1.16417
1.14789
1.12885
1.10815
1.08497
1.06413
1.05578
1.05709
1.07242
1.09639
1.1239
1.14992
1.16424
1.16589
1.15853
1.16681
1.1891
1.22751
1.2576
1.27648
1.29521
1.3242
1.36338
1.41625
1.47169
1.52216
1.57054
1.6107
1.63309
1.6387
1.64479
1.65331
1.66489
1.68307
1.70359
1.71434
1.71182
1.69056
1.66303
1.64548
1.63499
1.62512
1.60386
1.57452
1.53864
1.50207
1.47089
1.44415
1.42104
1.3985
1.37384
1.34911
1.32564
1.3033
1.27904
1.25499
1.2345
1.21676
1.19656
1.17457
1.15164
1.12607
1.10722
1.09525
1.08688
1.08756
1.10612
1.13647
1.16401
1.1766
1.17688
1.16297
1.17356
1.1988
1.23694
1.27226
1.29916
1.31757
1.32846
1.34475
1.36517
1.385
1.40636
1.42705
1.4476
1.47308
1.50024
1.52417
1.5423
1.56389
1.5868
1.60473
1.61966
1.6336
1.64312
1.64772
1.65887
1.67195
1.67615
1.67464
1.66579
1.64456
1.61533
1.58549
1.55917
1.53598
1.51343
1.48873
1.46509
1.44369
1.42223
1.40176
1.38197
1.36386
1.34732
1.32859
1.30719
1.28477
1.26407
1.248
1.23386
1.22086
1.20985
1.19312
1.1723
1.15606
1.14281
1.12774
1.11621
1.10916
1.10175
1.09183
1.09501
1.11029
1.13534
1.16689
1.19648
1.2249
1.2575
1.29426
1.32927
1.36173
1.39241
1.41435
1.42703
1.44627
1.47143
1.4972
1.52203
1.54375
1.56445
1.5901
1.61309
1.62502
1.62434
1.63161
1.64665
1.65711
1.65756
1.65423
1.65823
1.66504
1.66718
1.65898
1.64256
1.62357
1.60496
1.58737
1.5713
1.55694
1.54429
1.5328
1.52174
1.51018
1.49779
1.48498
1.47141
1.45708
1.44234
1.81912
1.78603
1.72935
1.65862
1.58419
1.51305
1.45766
1.42582
1.40625
1.40315
1.40495
1.41468
1.42236
1.41955
1.41255
1.41042
1.41218
1.41081
1.405
1.4
1.40129
1.4084
1.41145
1.40802
1.40619
1.41136
1.42233
1.43029
1.43237
1.43223
1.43425
1.44081
1.45518
1.47706
1.49397
1.53643
1.63157
1.74464
1.82981
1.80423
1.74485
1.67475
1.60269
1.53616
1.48822
1.46734
1.45607
1.45007
1.44067
1.4288
1.41045
1.39914
1.39876
1.40859
1.41752
1.41587
1.40938
1.39844
1.39464
1.39998
1.41824
1.43077
1.43194
1.42906
1.42371
1.42735
1.44015
1.46716
1.48493
1.49398
1.50281
1.50817
1.52639
1.56376
1.6267
1.70087
1.77892
1.78925
1.73126
1.65858
1.60759
1.57208
1.54576
1.5186
1.48582
1.44769
1.43033
1.42423
1.42952
1.44175
1.43982
1.43075
1.41746
1.40505
1.40072
1.40822
1.42266
1.4211
1.41187
1.39962
1.39207
1.39092
1.3987
1.41377
1.41661
1.41476
1.40935
1.40973
1.4179
1.43722
1.48693
1.5833
1.6516
1.63802
1.60359
1.56366
1.54764
1.55562
1.56185
1.54929
1.51449
1.47078
1.45267
1.4497
1.45904
1.46891
1.47183
1.46599
1.464
1.47255
1.48942
1.49704
1.49545
1.49544
1.50276
1.51828
1.52847
1.52761
1.52319
1.52585
1.53599
1.55581
1.56579
1.56657
1.56141
1.55694
1.55825
1.57118
1.5945
1.60213
1.59634
1.5846
1.55715
1.52626
1.51094
1.51778
1.56732
1.60516
1.60503
1.5649
1.5054
1.44386
1.38443
1.33049
1.28454
1.25384
1.23281
1.21746
1.20671
1.19616
1.1817
1.16103
1.14106
1.13349
1.13264
1.14461
1.18454
1.26546
1.36817
1.45183
1.50864
1.54453
1.56936
1.58355
1.59417
1.613
1.63771
1.66187
1.68112
1.6904
1.68696
1.68219
1.69242
1.70933
1.71984
1.71901
1.70813
1.70345
1.70554
1.70929
1.71113
1.70463
1.69156
1.67861
1.66782
1.65766
1.64344
1.61923
1.58734
1.54743
1.50094
1.45644
1.4197
1.38699
1.36186
1.33922
1.31021
1.27935
1.24677
1.21059
1.18073
1.16032
1.14827
1.13742
1.12149
1.10542
1.09192
1.07891
1.07155
1.07558
1.0919
1.1256
1.16403
1.18486
1.19012
1.19643
1.21371
1.23826
1.26793
1.2927
1.31377
1.33786
1.36618
1.4026
1.44971
1.49646
1.54104
1.58608
1.62767
1.65555
1.66341
1.66238
1.66268
1.66228
1.6681
1.68119
1.69745
1.7045
1.69985
1.67965
1.65956
1.64552
1.63553
1.62573
1.6014
1.57029
1.53641
1.50493
1.47636
1.44995
1.42415
1.39657
1.36811
1.33982
1.31132
1.28376
1.26041
1.24304
1.23042
1.21472
1.19405
1.17043
1.14153
1.11476
1.09777
1.09155
1.1009
1.13473
1.17165
1.18989
1.19179
1.17967
1.18647
1.20764
1.2377
1.2694
1.29184
1.30086
1.31136
1.33594
1.3652
1.39085
1.4123
1.42824
1.44374
1.46688
1.49413
1.52047
1.54127
1.55779
1.57987
1.60128
1.61654
1.62859
1.64129
1.6511
1.6547
1.65739
1.66616
1.67423
1.67793
1.67526
1.66184
1.64076
1.61808
1.59651
1.57748
1.55666
1.52722
1.49487
1.46616
1.4402
1.41621
1.39382
1.37495
1.35916
1.34041
1.31771
1.2932
1.27134
1.25584
1.24515
1.23951
1.23747
1.22389
1.20034
1.17459
1.15011
1.12888
1.11844
1.11376
1.10972
1.11406
1.12891
1.14677
1.16465
1.1803
1.19822
1.2259
1.26179
1.30577
1.34927
1.38496
1.41344
1.42721
1.44113
1.4675
1.49534
1.52047
1.54098
1.55542
1.57513
1.60217
1.62691
1.64301
1.64476
1.63981
1.64942
1.66326
1.67165
1.67022
1.66549
1.66771
1.67242
1.67416
1.66947
1.65756
1.63974
1.61896
1.59843
1.57994
1.56321
1.54751
1.53277
1.51865
1.50468
1.4905
1.47608
1.46113
1.44579
1.82258
1.79957
1.75421
1.69365
1.62509
1.55438
1.48885
1.4395
1.40995
1.38957
1.38203
1.38632
1.39578
1.39533
1.39155
1.39186
1.39478
1.39183
1.38452
1.37977
1.38112
1.38846
1.39091
1.38765
1.38737
1.39425
1.40635
1.41256
1.41336
1.41408
1.4214
1.43431
1.45746
1.47758
1.50775
1.58686
1.68851
1.77631
1.8468
1.82891
1.77486
1.70199
1.62462
1.55274
1.51239
1.48888
1.47222
1.4552
1.43446
1.40569
1.38873
1.38486
1.38951
1.40024
1.39976
1.3937
1.38231
1.37549
1.3781
1.3918
1.40799
1.41042
1.40848
1.40345
1.40757
1.41886
1.44424
1.46756
1.47728
1.48758
1.49593
1.51305
1.54788
1.61062
1.68284
1.73745
1.78722
1.78545
1.74748
1.70339
1.66442
1.62212
1.57712
1.52748
1.47055
1.44034
1.42774
1.42588
1.43655
1.43405
1.42426
1.40694
1.38827
1.38181
1.38565
1.40425
1.41095
1.40564
1.39438
1.38017
1.37599
1.37955
1.39744
1.40827
1.41015
1.40977
1.40507
1.41044
1.42605
1.46122
1.52947
1.62966
1.67955
1.66145
1.63149
1.60399
1.59454
1.5975
1.59062
1.56257
1.51576
1.48174
1.4672
1.46355
1.46488
1.46357
1.45576
1.44815
1.45328
1.46859
1.48229
1.48299
1.47801
1.48042
1.49155
1.50946
1.51477
1.51495
1.51505
1.52137
1.53645
1.55152
1.55643
1.55862
1.56021
1.56471
1.57687
1.59787
1.60914
1.60727
1.6
1.5827
1.56356
1.55049
1.5524
1.58914
1.66013
1.67822
1.65239
1.59799
1.52665
1.45956
1.40647
1.35988
1.32543
1.30051
1.28083
1.26345
1.24385
1.21834
1.19178
1.1693
1.14847
1.14167
1.14435
1.16121
1.20051
1.28338
1.38389
1.4526
1.49965
1.53861
1.5689
1.594
1.6193
1.63663
1.64237
1.64741
1.66518
1.68499
1.69856
1.69651
1.68843
1.6957
1.70917
1.71838
1.71705
1.70592
1.69887
1.69829
1.70061
1.70415
1.69916
1.68891
1.67905
1.67033
1.66172
1.65107
1.63302
1.60425
1.56907
1.52838
1.48465
1.44483
1.41017
1.38205
1.35853
1.32865
1.29557
1.25845
1.2198
1.19001
1.16895
1.15355
1.14221
1.13076
1.12104
1.11108
1.10222
1.10331
1.11366
1.14262
1.18586
1.21412
1.22918
1.24744
1.2695
1.29104
1.31245
1.33994
1.37034
1.39948
1.42568
1.44787
1.47948
1.51519
1.55231
1.59129
1.62934
1.66017
1.67598
1.67851
1.67577
1.67063
1.665
1.66753
1.67668
1.6877
1.68977
1.68227
1.66584
1.65224
1.64289
1.63426
1.62006
1.59867
1.57148
1.54156
1.51184
1.48382
1.45882
1.43375
1.40403
1.37287
1.33987
1.30833
1.28126
1.25745
1.23792
1.22047
1.20083
1.17831
1.1526
1.13109
1.12134
1.12143
1.13719
1.17455
1.19934
1.20241
1.19217
1.19707
1.2206
1.25359
1.2813
1.29711
1.30022
1.30768
1.33138
1.36344
1.39744
1.42162
1.44045
1.45009
1.46606
1.49067
1.51648
1.54026
1.55668
1.57566
1.59788
1.61457
1.62356
1.63288
1.64538
1.65607
1.66099
1.6614
1.66453
1.67108
1.67713
1.67715
1.66821
1.65497
1.64015
1.62487
1.60996
1.59499
1.57163
1.54034
1.50502
1.47149
1.44179
1.41448
1.39182
1.37666
1.36073
1.33646
1.3103
1.2876
1.2712
1.25878
1.2516
1.25169
1.24575
1.22376
1.1973
1.16628
1.13902
1.12794
1.1221
1.12222
1.13684
1.15826
1.1733
1.18588
1.19229
1.2084
1.24158
1.28139
1.33185
1.3746
1.40441
1.42041
1.43544
1.46358
1.49519
1.52419
1.54739
1.55995
1.56994
1.59117
1.61529
1.63724
1.65484
1.66371
1.65951
1.65693
1.66684
1.67857
1.68449
1.68121
1.67532
1.6754
1.67785
1.68027
1.67914
1.66965
1.65311
1.63348
1.61357
1.59406
1.57487
1.55592
1.53781
1.52066
1.50405
1.48786
1.47077
1.45315
1.82456
1.80872
1.77301
1.72117
1.66004
1.59407
1.52589
1.46603
1.42064
1.39129
1.3692
1.3611
1.36504
1.36657
1.36627
1.37175
1.37682
1.37287
1.36369
1.35887
1.36073
1.36852
1.37056
1.36733
1.36741
1.37528
1.38853
1.39464
1.39612
1.39996
1.41102
1.43125
1.45709
1.48335
1.54383
1.6502
1.73506
1.79665
1.85218
1.83928
1.7913
1.71983
1.64453
1.5869
1.54775
1.51531
1.4866
1.45439
1.41333
1.3868
1.37747
1.37533
1.38305
1.38338
1.37678
1.36428
1.35369
1.35417
1.36375
1.38366
1.38968
1.38871
1.38161
1.38236
1.39256
1.41394
1.44488
1.45915
1.47031
1.47983
1.49513
1.52395
1.57805
1.65438
1.71325
1.75476
1.78318
1.78904
1.76996
1.74516
1.70522
1.65387
1.59392
1.52484
1.47078
1.44756
1.43529
1.4367
1.43101
1.41941
1.40035
1.37413
1.36233
1.36268
1.37621
1.39063
1.38918
1.38231
1.3695
1.36035
1.36
1.37109
1.38604
1.39028
1.3942
1.39622
1.40112
1.41408
1.44077
1.48424
1.56539
1.66401
1.69022
1.68391
1.67074
1.65093
1.63762
1.62431
1.59919
1.56175
1.5261
1.50502
1.49029
1.47939
1.46725
1.44806
1.43187
1.43275
1.44354
1.46297
1.46893
1.46613
1.4612
1.46624
1.48106
1.49089
1.49526
1.50005
1.50774
1.52289
1.53857
1.54305
1.54576
1.55158
1.55911
1.57521
1.60115
1.61445
1.61287
1.60363
1.58799
1.5802
1.57788
1.58655
1.61274
1.65642
1.7072
1.70253
1.66016
1.58749
1.52666
1.47854
1.43715
1.40322
1.37583
1.34756
1.31575
1.28111
1.24786
1.21405
1.18768
1.16971
1.15587
1.15055
1.1553
1.17782
1.20805
1.28257
1.39025
1.4621
1.49942
1.53404
1.57244
1.60737
1.63669
1.65292
1.64228
1.63502
1.65187
1.67476
1.69584
1.70686
1.69989
1.68987
1.69577
1.70796
1.71625
1.71389
1.70202
1.69295
1.68982
1.69202
1.69774
1.6961
1.68819
1.67885
1.66819
1.65691
1.64214
1.6251
1.60536
1.57571
1.53788
1.49789
1.45892
1.42383
1.39508
1.36887
1.33766
1.30439
1.27109
1.23972
1.21444
1.19557
1.18202
1.16776
1.15471
1.14172
1.13387
1.13551
1.14845
1.18402
1.24097
1.27328
1.29361
1.31061
1.32248
1.33529
1.35933
1.39415
1.42865
1.45735
1.47979
1.48981
1.50691
1.53762
1.57216
1.60568
1.63387
1.65708
1.67565
1.68591
1.6852
1.67945
1.67274
1.66549
1.6649
1.66958
1.67391
1.67037
1.66085
1.65103
1.64276
1.63525
1.62548
1.61086
1.59155
1.56701
1.54153
1.51662
1.4925
1.46699
1.44014
1.41047
1.37891
1.34733
1.31594
1.28514
1.25683
1.23169
1.20801
1.18671
1.17008
1.15971
1.15802
1.1672
1.18828
1.21477
1.23061
1.2209
1.21608
1.23209
1.26513
1.2956
1.31157
1.31448
1.30909
1.33131
1.364
1.40587
1.43614
1.45514
1.46284
1.47215
1.49178
1.51445
1.53634
1.55363
1.56893
1.59226
1.61366
1.6263
1.62977
1.63646
1.64774
1.65792
1.6633
1.6637
1.66396
1.66798
1.67439
1.67761
1.67253
1.66243
1.65098
1.63826
1.62599
1.61491
1.60156
1.58023
1.54984
1.51469
1.48059
1.45018
1.42318
1.40312
1.38776
1.36629
1.34074
1.31835
1.3001
1.28365
1.27103
1.26416
1.26015
1.24229
1.21823
1.19127
1.16575
1.15109
1.1439
1.14453
1.15655
1.17473
1.18447
1.18851
1.2046
1.23662
1.27609
1.32366
1.36857
1.40014
1.41231
1.42589
1.45718
1.49201
1.52509
1.55194
1.56659
1.573
1.58945
1.6116
1.6302
1.6454
1.66134
1.67436
1.67938
1.67314
1.67332
1.68249
1.69201
1.69536
1.69051
1.68387
1.68262
1.68453
1.68743
1.68735
1.68079
1.66776
1.65072
1.63124
1.60987
1.58754
1.56557
1.54456
1.52514
1.50737
1.48938
1.47024
1.82571
1.81487
1.78712
1.74315
1.68853
1.628
1.56363
1.49937
1.44214
1.39974
1.37128
1.34662
1.33713
1.33685
1.33708
1.34586
1.35365
1.35013
1.34129
1.33773
1.34107
1.34878
1.34976
1.34704
1.34769
1.35526
1.36928
1.37724
1.38175
1.39006
1.40602
1.4289
1.45757
1.50587
1.60399
1.70262
1.76904
1.81293
1.85294
1.84403
1.79965
1.73413
1.67661
1.62963
1.58349
1.53971
1.4942
1.44236
1.4
1.3804
1.36993
1.37051
1.36975
1.362
1.34742
1.33181
1.32881
1.33472
1.35462
1.36574
1.3672
1.36179
1.3584
1.3661
1.38237
1.41368
1.43591
1.44908
1.46206
1.47669
1.50191
1.54537
1.61646
1.68235
1.72797
1.75761
1.78713
1.79785
1.79067
1.76767
1.72307
1.66676
1.59823
1.52968
1.49199
1.46877
1.45665
1.44264
1.42315
1.39592
1.36482
1.35176
1.34915
1.35619
1.36686
1.36496
1.35743
1.34624
1.33879
1.33896
1.35105
1.36758
1.37004
1.36889
1.36974
1.37769
1.39184
1.4207
1.45689
1.50354
1.60546
1.68559
1.7026
1.70847
1.70592
1.6874
1.66698
1.63858
1.6002
1.5677
1.54722
1.5306
1.51209
1.49085
1.45961
1.42669
1.41761
1.41984
1.43696
1.44898
1.44971
1.44454
1.44498
1.45601
1.47044
1.47274
1.47415
1.48356
1.49922
1.52251
1.53459
1.53845
1.54078
1.5487
1.56153
1.58822
1.6155
1.62128
1.61732
1.60445
1.59449
1.58874
1.59721
1.62081
1.64285
1.69309
1.72978
1.70339
1.63688
1.58356
1.53988
1.50849
1.47937
1.44524
1.40898
1.36705
1.32314
1.28039
1.23831
1.20883
1.19089
1.17806
1.16678
1.162
1.16926
1.17711
1.1962
1.26944
1.39214
1.47197
1.51121
1.54247
1.5757
1.61362
1.64058
1.65412
1.64639
1.63597
1.64547
1.66477
1.68983
1.70486
1.70914
1.69681
1.68979
1.69544
1.70694
1.71325
1.70887
1.6961
1.68586
1.68182
1.6858
1.69314
1.69525
1.68809
1.67486
1.65936
1.6429
1.62609
1.60753
1.58869
1.56144
1.52577
1.48868
1.45358
1.42204
1.39659
1.37485
1.34924
1.32286
1.29685
1.26893
1.24044
1.21696
1.19372
1.17329
1.16601
1.16507
1.16993
1.18924
1.23726
1.30497
1.33238
1.34667
1.35725
1.36287
1.37902
1.40985
1.44732
1.47717
1.50056
1.51894
1.53101
1.54258
1.55735
1.575
1.59697
1.62108
1.64588
1.66956
1.68567
1.68768
1.68243
1.67894
1.67226
1.66482
1.66229
1.66074
1.65563
1.64894
1.64176
1.63582
1.63097
1.62328
1.61077
1.59485
1.57621
1.55589
1.53435
1.51183
1.48826
1.46391
1.43904
1.41353
1.38482
1.35523
1.3249
1.29319
1.26153
1.23485
1.21654
1.20794
1.20742
1.2099
1.21578
1.22831
1.25274
1.26089
1.25844
1.26646
1.29103
1.31831
1.32951
1.3296
1.32425
1.34332
1.37385
1.41436
1.44898
1.4695
1.47525
1.47979
1.49865
1.51968
1.53943
1.55419
1.56022
1.57818
1.60076
1.61938
1.63085
1.63526
1.64318
1.65127
1.65797
1.6628
1.66397
1.66278
1.66385
1.66856
1.67458
1.67421
1.66616
1.6556