/*--------------------------------*- C++ -*----------------------------------*\
| =========                 |                                                 |
| \\      /  F ield         | OpenFOAM: The Open Source CFD Toolbox           |
|  \\    /   O peration     | Version:  2312                                  |
|   \\  /    A nd           | Website:  www.openfoam.com                      |
|    \\/     M anipulation  |                                                 |
\*---------------------------------------------------------------------------*/
FoamFile
{
    version     2.0;
    format      ascii;
    arch        "LSB;label=32;scalar=64";
    class       volScalarField;
    location    "0.01";
    object      T;
}
// * * * * * * * * * * * * * * * * * * * * * * * * * * * * * * * * * * * * * //

dimensions      [0 0 0 1 0 0 0];

internalField   nonuniform List<scalar> 
243728
(
249.981
249.981
249.981
249.981
249.981
249.981
249.981
249.981
249.981
249.981
249.981
249.981
249.981
249.981
249.981
249.981
249.981
249.981
249.981
249.981
249.981
249.981
249.981
249.981
249.981
249.981
249.981
249.981
249.981
249.981
249.981
249.981
249.981
249.981
249.981
249.981
249.981
249.981
249.981
249.981
249.981
249.981
249.981
249.981
249.981
249.981
249.981
249.981
249.981
249.981
249.981
249.981
249.981
249.981
249.981
249.981
249.981
249.981
249.981
249.981
249.981
249.981
249.981
249.981
249.981
249.981
249.981
249.981
249.981
249.981
249.981
249.981
249.981
249.981
249.981
249.981
249.981
249.981
249.981
249.981
249.981
249.981
249.981
249.981
249.981
249.981
249.981
249.981
249.981
249.981
249.981
249.981
249.981
249.981
249.981
249.981
249.981
249.981
249.981
249.981
249.981
249.981
249.981
249.981
249.981
249.981
249.981
249.981
249.981
249.981
249.981
249.981
249.981
249.981
249.981
249.981
249.981
249.981
249.981
249.981
249.981
249.981
249.981
249.981
249.981
249.981
249.981
249.981
249.981
249.981
249.981
249.981
249.981
249.981
249.981
249.981
249.981
249.981
249.981
249.981
249.981
249.981
249.981
249.981
249.981
249.981
249.981
249.981
249.981
249.981
249.981
249.981
249.981
249.981
249.981
249.981
249.981
249.981
249.981
249.981
249.82
251.38
249.315
248.579
248.938
248.884
248.649
248.254
247.916
247.546
247.346
247.365
247.345
247.274
247.217
247.322
247.308
247.198
247.185
247.42
247.829
248.043
248.193
248.454
249.086
249.76
250.294
250.81
251.316
251.891
252.657
253.604
254.58
255.442
256.169
256.852
257.855
259.757
261.727
261.595
260.345
258.545
256.992
255.754
254.7
253.818
253.036
252.299
251.605
251.017
250.428
249.768
249.291
249.189
249.163
248.937
248.638
248.629
248.856
249.325
249.751
249.997
250.222
250.559
251.354
252.419
253.517
254.473
255.302
256.172
257.202
258.353
259.592
260.833
262.088
263.608
265.295
266.075
265.263
264.126
263.177
262.458
261.893
261.365
260.784
260.175
259.657
259.446
259.489
259.675
259.745
259.553
259.206
259.005
258.986
259.182
259.576
259.75
259.772
259.622
259.323
259.083
259.025
259.091
259.175
259.097
258.829
258.29
257.542
257.114
257.034
257.185
257.262
256.748
255.389
253.637
252.292
251.256
250.376
249.502
248.552
247.456
246.419
245.733
245.494
245.445
245.32
245.318
245.424
245.665
245.918
246.223
246.719
247.433
248.289
249.237
250.321
251.676
253.33
255.245
257.391
259.736
262.244
264.969
267.936
271.056
274.212
277.238
279.965
282.283
284.095
285.396
286.108
286.118
285.921
285.389
284.62
283.821
282.818
281.403
279.521
277.363
275.176
272.802
270.302
268.064
266.396
265.057
263.205
261.298
259.467
257.961
256.986
256.764
256.911
257.301
258.001
259.148
260.346
260.026
258.63
256.818
254.72
252.485
250.398
248.705
247.429
246.569
246.447
246.588
246.598
246.236
246.215
246.737
247.657
248.679
250.462
253.852
259.185
266.195
273.653
280.005
284.031
285.896
286.23
285.844
284.967
283.393
281.233
278.671
275.87
273.083
270.52
268.262
266.333
264.736
263.173
261.218
259.068
256.979
255.068
253.367
252.22
251.68
251.444
251.03
250.474
249.943
249.334
248.72
248.822
249.958
251.731
253.75
255.707
257.309
258.564
259.184
259.773
261.161
262.897
265.056
267.829
270.408
271.27
270.868
268.84
265.075
260.722
256.204
252.638
250.546
249.316
248.842
248.163
248.282
250.52
255.623
261.934
267.726
271.57
272.93
272.396
271.385
270.877
270.812
270.89
270.874
269.891
268.254
266.418
264.758
263.139
261.538
260.149
259.021
258.121
257.216
256.18
254.963
253.694
252.502
251.287
249.959
248.765
248.211
248.002
248.036
248.338
248.872
249.855
251.251
253.032
255.085
256.756
257.606
257.687
258.547
260.347
262.254
263.997
265.383
266.053
266.284
266.825
267.328
267.472
267.386
266.948
266.006
264.535
262.384
259.572
256.525
254.059
253.28
253.949
255.744
258.997
263.096
267.221
270.201
271.431
271.383
271.046
270.709
270.293
269.713
268.921
268.064
267.234
266.392
265.56
264.691
263.697
262.599
261.397
260.085
258.734
257.437
256.323
255.53
255.094
254.553
253.727
252.78
251.668
250.225
248.731
247.383
246.581
246.867
247.952
249.193
250.633
252.405
254.331
256.132
257.808
259.219
260.359
261.261
262.205
263.473
264.779
266.052
267.251
268.069
268.302
268.243
267.863
267.105
266.264
265.513
264.638
263.485
262.426
262.32
262.897
264.334
266.263
268.32
270.118
271.95
273.733
274.801
275.091
274.731
274.216
274.161
274.276
274.222
273.92
273.471
273.094
272.83
272.509
272.005
271.375
270.712
246.565
242.685
239.113
236.707
236.756
237.061
237.653
238.275
238.783
238.761
238.716
238.745
238.831
238.812
238.749
238.769
238.765
238.862
239.212
239.264
239.299
239.369
239.659
240.151
240.462
240.709
241.002
241.361
241.779
242.392
243.225
244.073
244.788
245.356
245.878
246.391
247.881
250.792
254.73
254.357
251.741
249.183
247.744
246.824
246.23
245.317
244.38
243.536
242.818
242.531
242.598
242.716
242.549
242.007
241.506
241.211
241.281
241.886
242.505
242.63
242.464
242.254
242.312
243.04
244.237
245.216
245.886
246.172
246.374
246.827
248.053
249.463
250.89
252.323
253.494
254.788
257.087
258.182
257.063
255.879
254.817
253.589
252.585
251.779
251.17
250.741
250.517
250.487
250.51
250.304
249.952
249.627
249.51
249.623
250.014
250.068
250.054
249.926
249.731
249.764
249.99
250.282
250.339
250.269
250.153
250.117
250.183
250.305
250.345
250.38
250.632
251.208
252.232
251.791
250.781
249.53
248.181
246.845
245.915
245.069
244.398
243.684
242.873
242.208
241.953
241.775
241.735
241.949
242.292
242.356
242.359
242.524
242.998
243.504
243.89
244.266
244.857
245.788
246.952
248.192
249.413
250.766
252.35
254.323
256.711
259.457
262.461
265.513
268.479
271.313
273.982
276.334
278.379
279.869
280.744
281.399
281.923
282.014
281.655
280.567
278.785
276.859
274.752
272.087
269.364
266.867
264.802
263.406
261.765
259.797
257.962
256.294
254.781
253.456
252.499
252.594
253.131
254.236
255.667
255.311
253.904
252.095
250.165
248.556
247.291
246.406
245.87
245.451
245.18
245.542
246.112
246.249
245.868
245.885
246.372
247.007
247.669
248.664
250.759
254.634
260.249
266.927
273.471
278.695
281.683
283.355
283.446
283.048
282.125
280.55
278.498
276.173
273.812
271.408
269.048
266.788
264.821
263.36
261.761
259.638
257.429
255.264
253.388
252.026
251.335
251.402
251.886
252.042
252.039
251.696
251.268
251.124
251.916
253.504
255.988
258.357
260.088
261.293
262.085
262.925
263.819
264.696
266.035
267.875
269.058
268.826
267.113
263.812
259.243
254.848
251.478
249.437
248.627
248.304
248.132
247.477
247.408
249.026
253.212
258.767
264.223
268.391
270.588
270.629
270.112
269.823
269.624
269.674
269.517
268.707
267.335
265.723
263.983
262.325
260.78
259.523
258.406
257.001
255.434
253.898
252.547
251.438
250.641
250.026
249.618
249.567
249.541
249.152
248.401
248.371
249.326
251.086
253.127
255.063
256.813
258.073
258.841
259.461
260.353
261.644
263.168
264.636
265.783
266.373
266.505
266.564
266.472
266.253
265.826
265.083
263.938
262.232
259.971
257.1
254.247
252.142
251.614
252.133
253.521
256.369
260.367
264.713
268.054
269.819
270.346
270.314
270.064
269.571
268.877
268.088
267.284
266.469
265.623
264.734
263.813
262.786
261.576
260.276
258.937
257.508
256.094
255.022
254.577
254.392
254.021
253.444
252.636
251.401
249.752
248.111
247.279
247.327
247.902
248.996
250.159
251.556
253.387
255.331
257.21
259.165
260.904
262.166
262.943
263.695
264.613
265.582
266.515
267.218
267.463
267.465
267.281
266.641
265.643
264.759
264.043
263.265
262.225
261.232
261.143
261.624
262.867
264.608
266.665
268.682
270.782
272.784
274.087
274.504
274.323
274.017
273.982
273.985
273.836
273.498
273.113
272.775
272.427
271.98
271.443
270.843
247.93
244.225
240.191
236.658
234.33
233.566
233.632
234.067
234.603
234.843
234.921
235.052
235.124
234.946
234.71
234.667
234.676
234.764
234.764
234.679
234.676
234.93
235.333
235.463
235.501
235.563
235.804
236.268
236.834
237.326
237.623
237.918
238.194
238.473
239.116
240.098
241.848
245.57
250.938
249.461
245.978
243.556
242.264
241.655
240.795
239.552
238.285
237.646
237.486
237.834
238.169
238.013
237.493
236.829
236.507
236.639
237.284
237.666
237.66
237.467
237.162
237.208
237.856
238.893
239.529
239.83
239.891
239.847
240.065
241.126
242.615
243.926
244.93
245.755
246.119
247.538
251.12
253.051
252.092
250.426
248.163
246.055
244.919
244.176
244.048
244.332
244.344
243.828
243.197
242.594
242.326
242.445
243.117
243.466
243.282
242.83
242.232
241.994
242.023
242.685
243.216
243.236
243.103
242.54
242.221
242.297
242.783
243.572
244.092
244.423
244.583
245.53
247.719
247.392
247.081
246.105
244.591
243.007
242.215
241.677
241.209
240.718
239.999
239.174
238.926
238.976
239.189
239.598
239.731
239.717
239.768
240.111
240.605
240.85
240.973
241.152
241.648
242.423
243.15
243.681
244.166
244.824
245.899
247.423
249.092
250.891
252.8
254.737
256.758
259
261.482
264.091
266.842
269.372
271.54
273.449
275.184
277.075
277.147
276.233
274.482
272.749
270.686
267.921
265.131
262.585
260.368
258.777
257.119
254.966
252.802
250.854
249.054
247.13
245.533
245.548
246.049
247.2
249.076
249.416
248.676
247.367
246.059
245.131
244.569
244.429
244.586
244.816
244.598
244.501
245.253
245.96
246.066
245.623
245.6
245.988
246.544
246.836
247.283
248.431
250.856
254.942
260.402
266.366
271.903
275.988
278.298
279.935
280.077
279.759
278.984
277.646
275.769
273.584
271.252
268.943
266.976
265.436
263.962
262.432
260.546
258.505
256.365
254.369
253.145
252.592
252.593
252.722
253.031
253.411
253.809
253.983
254.301
255.251
256.464
257.985
259.607
261.214
262.76
263.951
264.865
265.155
265.16
265.366
265.67
265.397
263.51
260.328
256.389
252.602
249.812
248.164
247.532
247.533
247.595
247.516
246.789
246.495
247.532
250.714
255.329
260.202
264.309
267.09
268.117
268.256
268.34
268.259
268.226
267.946
267.203
266.077
264.659
263.1
261.674
260.367
258.702
256.748
254.739
253.076
251.799
250.912
250.484
250.505
250.617
250.701
250.65
250.083
249.553
249.94
250.821
252.095
253.278
254.196
255.463
257.355
259.066
260.213
261.195
261.752
262.131
263.303
264.707
265.645
265.956
265.742
265.098
264.498
263.776
262.834
261.749
260.572
259.071
256.991
254.418
251.972
250.337
249.97
250.292
251.275
253.694
257.51
261.697
265.113
267.456
268.825
269.165
269.057
268.676
268.032
267.239
266.384
265.496
264.641
263.815
262.883
261.744
260.49
259.271
258.028
256.69
255.433
254.533
254.113
253.768
253.153
252.399
251.547
250.383
249.262
248.667
248.293
247.957
248.353
249.342
250.791
252.741
254.917
256.952
258.87
260.471
261.752
262.762
263.65
264.522
265.276
265.771
266.052
266.108
266.065
265.856
265.208
264.257
263.277
262.528
262.129
261.615
260.773
259.849
259.735
260.121
261.201
262.747
264.694
266.822
269.181
271.398
272.962
273.648
273.666
273.654
273.659
273.604
273.399
273.055
272.67
272.272
271.82
271.294
270.706
248.948
246.238
242.603
238.71
235.474
233.504
232.817
232.83
233.173
233.413
233.505
233.623
233.68
233.466
233.163
233.063
233.09
233.072
232.864
232.667
232.706
233.013
233.256
233.198
233.043
233.042
233.351
233.929
234.406
234.555
234.546
234.539
234.77
235.387
236.323
237.408
239.259
243.961
249.349
247.354
244.149
241.923
240.273
238.907
237.373
235.742
234.942
234.74
235.022
235.279
235.034
234.509
233.937
233.716
233.874
234.424
234.637
234.45
234.095
233.901
234.025
234.625
235.512
235.871
235.867
235.755
235.728
236.156
237.121
238.521
239.463
240.071
240.528
240.682
241.774
244.243
248.77
251.344
249.785
246.634
243.222
241.268
240.322
239.968
240.249
239.96
239.27
238.549
237.891
237.683
237.945
238.628
238.708
238.399
237.941
237.332
237.105
237.287
237.915
238.026
237.935
237.741
237.308
237.055
237.092
237.607
238.348
238.87
239.227
239.281
239.605
241.715
244.944
245.069
244.831
243.409
241.47
240.262
240.147
239.842
239.359
238.499
237.405
236.599
236.665
237.039
237.51
237.651
237.581
237.594
237.845
238.405
238.756
238.8
238.821
239.09
239.651
240.215
240.461
240.548
240.811
241.511
242.592
243.666
244.371
245.029
245.703
246.518
247.865
249.68
251.672
253.904
256.219
258.363
260.407
262.548
264.674
267.999
268.246
267.205
265.574
263.875
262.084
259.845
257.338
254.894
252.758
250.882
248.844
246.531
244.22
242.16
240.382
238.735
237.07
237.088
237.829
239.544
242.021
244.099
244.112
243.827
243.293
242.8
242.654
242.872
243.568
244.3
244.543
244.024
244.343
245.263
245.882
245.932
245.43
245.364
245.65
246.015
246.201
246.271
246.686
248.022
250.585
254.49
259.382
264.353
268.672
271.862
274.112
275.644
276.014
275.809
275.046
273.797
272.063
270.039
268.019
266.143
264.6
263.505
262.351
260.723
259.04
257.358
255.573
253.902
252.84
252.463
252.847
254.025
254.903
256
257.209
257.875
257.927
257.875
258.544
259.98
262.173
263.688
264.157
263.906
263.205
262.417
261.829
261.054
258.976
256.141
253.038
250.041
247.937
246.797
246.39
246.419
246.77
247.001
246.865
246.085
245.6
246.184
248.385
251.959
255.974
259.747
262.692
264.458
265.398
266.024
266.271
266.234
265.967
265.205
264.042
262.707
261.548
260.364
258.817
257.127
255.484
253.996
252.737
251.721
250.995
250.505
250.109
249.736
249.408
249.583
250.553
251.86
252.884
253.558
253.473
253.66
254.903
256.831
259.101
260.787
261.825
262.046
261.821
262.306
263.218
263.929
264.041
263.752
263.072
262.318
261.281
259.862
258.502
257.451
256.525
255.478
253.931
251.797
249.879
248.748
248.394
248.473
249.219
251.329
254.49
258.005
261.48
264.442
266.399
267.426
267.55
267.382
266.896
266.191
265.371
264.523
263.66
262.784
261.771
260.573
259.411
258.392
257.407
256.328
255.241
254.405
253.717
252.91
252.212
251.686
250.982
250.231
249.739
249.194
248.249
247.998
248.871
250.507
252.66
254.869
256.742
258.356
259.739
261.02
262.25
263.242
263.966
264.348
264.49
264.498
264.417
264.27
263.89
263.076
262.134
261.257
260.436
260.038
260.011
259.811
259.122
258.231
258.12
258.455
259.423
260.727
262.457
264.597
267.092
269.43
271.143
272.162
272.687
272.984
273.08
273.028
272.821
272.48
272.065
271.582
271.035
270.439
249.421
247.554
244.675
241.232
237.794
234.798
233.215
232.358
232.324
232.51
232.707
233.029
233.122
232.886
232.549
232.434
232.465
232.387
232.091
231.819
231.863
232.126
232.236
232.1
231.918
231.952
232.233
232.754
232.989
233.064
233.013
233.1
233.544
234.408
235.356
236.468
239.352
244.634
248.984
247.387
244.714
242.245
239.969
237.691
235.537
234.331
233.776
233.653
233.746
233.419
232.949
232.345
232.004
232.094
232.607
232.817
232.64
232.296
231.935
231.975
232.451
233.335
233.664
233.639
233.467
233.373
233.706
234.556
235.88
236.634
237.066
237.468
237.811
238.931
240.801
244.101
248.554
250.001
247.799
244.235
241.2
239.604
238.685
238.347
237.695
236.797
235.62
234.956
234.828
235.157
235.629
235.512
235.083
234.599
234.16
234.034
234.372
234.798
234.652
234.253
233.956
233.83
233.82
234.254
234.683
234.862
234.995
235.117
235.329
235.755
237.135
240.471
244.131
244.072
243.005
241.232
239.589
239.397
239.507
239.285
238.345
236.695
235.323
234.993
235.237
235.851
236.095
236.035
235.81
235.986
236.47
237.048
237.2
237.147
237.285
237.737
238.351
238.498
238.406
238.465
238.898
239.765
240.758
241.127
241.225
241.264
241.524
242.267
243.695
245.38
246.621
247.619
248.531
249.049
249.59
250.924
253.755
257.362
258.192
257.226
255.896
254.204
252.2
249.891
247.175
244.696
242.756
240.909
239.119
237.393
235.752
234.007
232.532
231.108
229.281
229.432
230.672
233.292
236.702
239.689
240.991
241.58
241.805
241.71
241.478
241.923
242.898
243.852
244.442
244.256
243.873
244.426
245.31
245.801
245.775
245.289
245.135
245.284
245.543
245.625
245.504
245.506
245.951
247.324
249.611
252.892
256.855
260.682
263.961
266.583
268.449
269.706
270.305
270.229
269.815
268.75
267.277
265.609
263.931
262.403
261.079
259.991
258.969
257.718
256.241
254.471
252.884
252.286
252.36
253.217
254.63
256.403
258.123
258.811
258.798
258.008
258.174
259.017
260.769
261.417
261.163
260.155
258.848
257.525
256.607
255.514
253.787
251.87
250.048
248.31
246.666
245.734
245.313
245.273
245.603
246.164
246.386
246.18
245.38
244.791
245.046
246.402
248.873
251.714
254.741
257.423
259.621
261.412
262.659
263.331
263.377
263.114
262.472
261.615
260.648
259.438
258.166
257.096
256.135
254.974
253.696
252.364
250.824
249.5
248.636
248.168
248.277
249.575
251.613
253.431
254.397
254.439
253.539
254.067
255.255
257.143
258.846
259.942
260.404
260.437
260.709
261.274
261.514
261.489
261.26
260.757
260.203
259.441
258.253
256.587
255.154
254.087
253.271
252.703
252.135
251.091
249.465
248.165
247.374
246.994
247.068
247.64
248.933
251.089
254.09
257.503
260.694
263.102
264.483
265.295
265.42
265.242
264.776
264.085
263.331
262.596
261.682
260.572
259.395
258.305
257.484
256.76
256.082
255.503
254.571
253.346
252.356
251.559
250.619
249.862
249.398
248.914
248.275
248.477
249.338
250.758
252.617
254.172
255.57
257.181
258.932
260.369
261.517
262.382
262.634
262.442
262.443
262.417
262.303
262.013
261.366
260.419
259.607
258.887
258.279
257.641
257.632
257.858
257.812
257.264
256.476
256.403
256.711
257.523
258.543
260.064
262.136
264.492
266.752
268.667
270.131
271.142
271.752
272.037
272.042
271.894
271.588
271.173
270.672
270.11
249.661
248.359
246.086
243.165
239.986
236.81
234.281
232.785
231.835
231.713
231.794
232.232
232.557
232.413
232.053
231.923
231.988
231.904
231.584
231.306
231.347
231.625
231.728
231.523
231.408
231.611
232.042
232.351
232.425
232.41
232.498
232.793
233.445
234.415
235.22
237.178
241.216
245.797
249.241
248.272
245.955
243.115
240.121
237.234
235.096
234.138
233.665
233.408
232.932
232.341
231.507
230.997
230.974
231.379
231.731
231.662
231.372
230.878
230.69
230.922
231.721
232.27
232.349
232.248
232.051
232.247
232.881
234.116
234.913
235.345
235.841
236.285
237.326
239.043
241.728
244.956
248.202
248.823
246.549
243.615
241.436
239.928
238.803
237.589
236.084
234.315
233.498
233.213
233.452
233.904
233.707
233.182
232.578
232.06
231.885
232.236
232.87
232.744
232.273
231.768
231.511
231.507
231.983
232.74
232.902
232.845
232.612
232.671
233.203
234.252
236.647
240.964
243.995
243.454
241.947
240.148
239.316
239.587
239.744
239.109
237.461
235.473
234.478
234.237
234.602
234.906
234.947
234.641
234.551
234.899
235.59
235.916
235.856
235.863
236.191
236.856
237.288
237.267
237.1
237.243
237.787
238.745
239.27
239.407
239.4
239.472
239.9
240.89
242.316
243.166
243.431
243.587
243.213
242.74
242.98
244.297
247.7
251.028
251.632
250.47
248.349
245.758
242.972
240.264
237.851
236.106
234.693
233.401
232.265
231.118
229.679
227.829
226.186
224.925
223.943
224.352
225.999
229.53
233.961
237.238
239.164
240.174
240.814
241.107
241.262
241.779
242.608
243.45
244.141
244.458
244.29
244.079
244.521
245.259
245.677
245.63
245.143
244.9
244.937
245.079
245.172
244.947
244.664
244.686
245.154
246.415
248.348
250.629
253.206
255.653
257.677
259.395
260.785
261.798
262.701
263.005
262.77
262.076
260.762
258.919
257.535
256.654
256.039
255.359
254.316
253.32
252.458
251.481
250.799
251.028
252.009
253.854
256.024
256.799
256.61
256.447
256.693
257.217
257.515
257.322
256.521
255.121
253.308
251.683
250.575
249.533
248.587
247.864
247.328
246.79
246.053
245.253
244.752
244.461
244.57
245.02
245.567
245.745
245.467
244.656
244.092
244.118
244.747
246.197
247.799
249.751
251.916
254.168
256.249
257.914
259.119
259.666
259.627
259.32
258.616
257.688
256.823
256.104
255.535
254.772
253.691
252.366
250.583
248.835
247.774
247.47
248.16
250.371
252.737
253.814
253.945
253.1
253.272
254.158
255.683
257.124
257.694
257.524
257.37
257.919
258.66
258.973
258.954
258.496
257.747
257.23
256.7
255.902
254.639
253.089
251.96
251.093
250.37
249.926
249.732
249.442
248.686
247.613
246.834
246.322
246.044
245.924
246.016
246.609
248.058
250.469
253.583
256.632
258.939
260.578
261.658
262.341
262.509
262.369
262.081
261.763
261.178
260.236
259.047
257.915
257.098
256.557
256.296
256.186
255.399
254.062
252.596
251.112
249.706
248.934
248.542
248.116
248.27
249.056
250.084
251.159
251.961
252.645
253.893
255.676
257.67
259.204
260.107
260.456
260.137
259.799
259.942
259.961
259.844
259.321
258.295
257.433
256.826
256.296
255.967
255.596
255.136
255.386
255.731
255.748
255.32
254.7
254.653
254.91
255.543
256.412
257.687
259.373
261.36
263.483
265.538
267.303
268.661
269.584
270.168
270.398
270.373
270.211
269.889
269.438
249.796
248.891
247.085
244.625
241.764
238.72
235.81
233.573
232.161
231.175
230.834
231.049
231.505
231.484
231.295
231.302
231.432
231.286
230.916
230.668
230.723
231.045
231.131
230.939
230.903
231.177
231.685
231.938
231.959
231.974
232.26
232.783
233.788
234.691
236.029
239.458
243.662
247.179
250.023
249.337
247.169
244.15
240.854
237.753
235.943
234.905
234.232
233.533
232.575
231.297
230.55
230.343
230.531
231
230.995
230.738
230.209
229.869
229.972
230.571
231.285
231.415
231.33
231.094
231.274
231.791
232.932
233.933
234.387
234.918
235.374
236.224
237.694
240.341
243.437
245.783
247.83
247.784
246.265
244.41
242.834
241.128
239.296
237.177
234.63
233.266
232.69
232.599
233.008
232.813
232.31
231.507
230.65
230.33
230.491
231.289
231.564
231.322
230.8
230.129
229.92
230.101
230.958
231.45
231.556
231.566
231.4
231.71
232.512
234.218
237.299
241.676
243.86
243.116
241.856
240.601
240.169
240.327
240.034
238.79
236.708
235.146
234.436
234.255
234.279
234.154
233.784
233.452
233.676
234.331
234.921
234.961
234.742
234.846
235.337
236.124
236.379
236.395
236.393
236.65
237.289
237.957
238.245
238.432
238.636
238.985
239.656
240.682
241.402
241.495
241.496
241.166
240.789
240.62
241.006
243.227
246.53
248.103
247.232
245.253
242.436
239.493
237.095
234.923
233.259
231.964
230.828
229.738
228.462
226.811
225.066
223.503
222.221
221.339
221.348
221.985
223.764
227.693
232.379
235.318
237.161
238.704
239.883
240.807
241.735
242.388
242.523
242.629
243.328
244.139
244.689
244.613
244.288
244.6
245.175
245.544
245.481
244.991
244.654
244.595
244.639
244.779
244.569
244.183
244.027
244.06
244.425
245.225
246.194
247.219
248.399
249.504
250.41
251.345
252.213
253.031
253.661
253.668
253.393
252.628
251.399
250.308
249.514
248.988
248.701
248.337
247.824
247.146
246.463
246.491
246.986
248.416
250.775
252.073
252.034
252.235
252.465
252.401
251.902
251.421
250.836
249.767
248.126
246.32
245.265
244.598
244.5
244.667
245.041
245.311
245.277
244.978
244.596
244.282
244.04
244.16
244.564
244.977
245.026
244.636
243.943
243.461
243.358
243.531
243.991
244.753
245.828
247.201
248.832
250.568
252.339
253.734
254.549
254.919
254.836
254.475
253.983
253.413
252.952
252.454
251.632
250.462
249.019
247.987
247.597
247.589
248.581
251.095
252.475
252.565
251.557
251.56
252.494
253.984
255.043
255.225
254.633
254.193
254.415
255.101
255.689
255.692
255.431
254.408
253.68
253.263
252.773
252.057
250.892
249.89
249.236
248.647
247.997
247.646
247.59
247.569
247.398
246.845
246.293
245.88
245.611
245.244
244.741
244.675
244.912
245.797
247.472
249.764
252.044
254.059
255.641
256.907
257.84
258.421
258.797
259.142
259.185
258.71
257.808
256.858
256.216
255.76
255.419
255.401
255.074
253.912
252.454
250.556
248.788
247.922
247.374
247.3
248.018
249.066
249.785
250.308
250.397
250.9
252.311
254.051
256.031
257.065
257.293
256.915
256.429
256.62
256.982
257.107
256.984
256.142
255.062
254.519
254.043
253.67
253.581
253.61
253.274
253.045
253.35
253.699
253.767
253.449
252.987
252.936
253.116
253.601
254.336
255.237
256.459
258.053
259.939
261.911
263.747
265.289
266.515
267.357
267.892
268.087
268.038
267.808
249.873
249.251
247.834
245.743
243.22
240.426
237.453
234.777
232.7
231.304
230.244
229.867
230.06
230.148
230.144
230.421
230.667
230.478
230.038
229.805
229.895
230.266
230.354
230.19
230.187
230.548
231.151
231.416
231.472
231.631
232.101
232.993
234.141
235.311
237.963
242.472
245.947
248.461
250.642
250.113
248.172
245.242
242.097
239.64
237.939
236.502
235.228
233.758
231.855
230.653
230.237
230.117
230.473
230.501
230.222
229.634
229.108
229.117
229.548
230.471
230.758
230.708
230.354
230.374
230.816
231.746
233.145
233.82
234.352
234.785
235.445
236.647
238.953
242.224
244.669
246.324
247.411
247.68
246.889
245.962
244.394
242.251
239.734
236.734
234.286
233.235
232.713
232.79
232.491
231.937
231.087
229.883
229.288
229.274
229.855
230.515
230.463
230.149
229.529
229.062
229.028
229.501
230.153
230.367
230.57
230.694
230.962
231.585
232.79
234.772
238.394
242.645
243.662
243.386
242.837
242.064
241.563
241.022
239.955
238.286
236.689
235.731
235.144
234.715
234.146
233.276
232.59
232.64
233.108
233.976
234.266
234.146
233.918
234.141
234.801
235.245
235.453
235.67
235.998
236.644
237.285
237.516
237.672
237.967
238.333
239.042
240.192
240.888
240.879
240.599
240.108
239.941
239.936
240.479
241.718
243.778
246.17
246.107
244.511
241.678
239.261
237.188
235.3
233.7
232.352
230.994
229.396
227.544
225.688
223.819
222.399
221.365
220.551
220.035
220.246
221.336
222.688
226.327
231.563
234.943
236.549
238.01
239.595
240.998
242.196
242.851
242.383
242.06
242.757
243.711
244.602
245.062
244.775
244.37
244.611
245.112
245.447
245.339
244.818
244.405
244.226
244.284
244.458
244.368
244.03
243.693
243.412
243.217
243.069
243.098
243.28
243.295
243.189
243.099
243.062
243.107
243.301
243.503
243.453
243.131
242.457
241.674
241.093
240.7
240.489
240.06
239.504
238.937
238.57
238.688
239.476
241.412
244.591
246.162
246.205
246.245
245.934
245.475
245.412
245.398
245.292
244.809
243.838
242.429
241.847
241.878
242.334
243.016
243.615
244.124
244.446
244.616
244.537
244.305
244.094
243.861
243.893
244.154
244.329
244.167
243.73
243.265
242.869
242.616
242.417
242.414
242.505
242.695
243.239
244.184
245.379
246.541
247.597
248.385
248.941
249.053
248.949
248.614
248.119
247.56
246.912
246.248
245.745
245.761
245.895
246.674
248.088
249.737
250.344
249.572
248.936
249.43
250.905
251.915
251.912
251.272
250.006
250.247
250.732
251.71
251.952
251.843
250.897
249.945
249.554
249.257
248.871
248.216
247.478
247.211
247.043
246.797
246.282
246.045
246.019
246.049
246.037
245.826
245.533
245.354
245.236
245.054
244.512
243.997
243.677
243.644
243.954
244.875
246.233
247.689
249.057
250.285
251.432
252.491
253.352
254.175
254.874
254.949
254.757
254.384
254.042
253.67
253.386
253.211
253.104
252.191
250.845
249.248
247.663
246.616
245.992
245.955
246.536
247.203
247.29
247.085
247.512
248.755
250.36
252.185
253.345
253.636
253.104
252.51
252.713
253.216
253.718
253.911
253.568
252.541
252.092
251.866
251.529
251.225
251.282
251.545
251.695
251.339
251.264
251.568
251.912
252.004
251.762
251.436
251.373
251.523
251.888
252.389
252.987
253.828
254.968
256.373
257.924
259.494
260.976
262.261
263.306
264.056
264.542
264.662
249.918
249.493
248.396
246.633
244.399
241.863
239.094
236.251
233.655
231.69
230.338
229.144
228.679
228.683
228.699
229.141
229.528
229.361
228.941
228.776
228.945
229.328
229.379
229.256
229.291
229.667
230.341
230.713
230.926
231.317
232.069
233.121
234.406
236.578
240.855
244.989
247.71
249.465
250.978
250.613
248.857
246.226
243.861
241.884
239.9
237.986
235.932
233.533
231.553
230.636
230.135
230.17
230.152
229.808
229.112
228.335
228.18
228.46
229.422
229.948
230.012
229.734
229.559
229.92
230.647
232.057
233.104
233.721
234.294
234.884
235.953
237.842
240.927
243.68
245.513
246.638
247.77
248.204
247.952
247.083
245.276
242.909
239.966
236.966
235.241
234.211
233.729
233.121
232.188
230.94
229.531
228.912
228.769
229.072
229.553
229.477
229.134
228.589
228.213
228.213
228.779
229.507
229.605
229.54
229.573
229.939
230.592
231.902
233.571
235.67
240.119
243.508
244.145
244.42
244.336
243.598
242.75
241.538
239.903
238.5
237.626
236.972
236.244
235.29
233.853
232.398
232
232.101
232.883
233.46
233.51
233.282
233.298
233.8
234.447
234.549
234.609
235.023
235.704
236.722
237.278
237.451
237.54
237.868
238.403
239.539
240.755
241.036
240.906
240.425
240.034
239.763
240.11
241.206
242.213
244.388
246.082
244.998
242.347
240.242
238.393
237.004
235.641
234.079
232.432
230.428
228.285
226.132
224.021
222.499
221.522
220.782
220.136
219.826
220.127
220.461
221.402
225.188
231.246
234.981
236.771
238.132
239.553
241.152
242.278
242.853
242.542
242.115
242.533
243.369
244.425
245.058
245.237
244.724
244.435
244.651
245.105
245.359
245.163
244.598
244.142
243.932
244.053
244.296
244.324
243.996
243.466
242.834
242.221
241.666
241.12
240.681
239.993
239.012
238.031
237.229
236.644
236.365
236.231
235.833
235.289
234.699
233.935
233.017
232.239
231.238
230.407
230.371
230.421
230.868
232.143
234.843
238.483
239.962
239.88
239.76
239.403
239.591
240.247
241.008
241.279
241.29
241.125
240.79
240.615
240.619
240.818
241.338
242.113
242.999
243.772
244.291
244.372
244.204
244.155
244.014
243.806
243.773
243.749
243.568
243.276
242.902
242.574
242.293
241.911
241.471
241.004
240.555
240.336
240.345
240.482
240.799
241.254
241.774
242.31
242.602
242.669
242.592
242.232
241.624
241.187
241.074
241.235
241.93
242.679
243.452
244.199
245.429
245.933
245.679
245.857
246.85
247.683
247.576
246.687
245.551
245.773
246.212
247.309
247.916
247.936
247.255
246.302
246.14
246.063
245.972
245.646
244.888
244.839
245.002
245.218
245.265
245.047
245.011
244.989
244.959
244.935
244.856
244.683
244.645
244.667
244.714
244.52
243.946
243.395